<?xml version="1.0" encoding="UTF-8"?>

<!-- generated on 2024-09-21 18:43:42 by Eclipse SUMO GUI Version 1.20.0
<configuration xmlns:xsi="http://www.w3.org/2001/XMLSchema-instance" xsi:noNamespaceSchemaLocation="http://sumo.dlr.de/xsd/sumoConfiguration.xsd">

    <input>
        <net-file value="sumo_simulation/maps/intersection.net.xml"/>
        <route-files value="sumo_simulation/maps/intersection.rou.xml"/>
    </input>

    <output>
        <tripinfo-output value="sumo_simulation/tripinfo.xml"/>
    </output>

    <time>
        <begin value="0"/>
        <end value="200"/>
    </time>

    <report>
        <verbose value="true"/>
        <no-step-log value="true"/>
    </report>

    <traci_server>
        <remote-port value="50221"/>
    </traci_server>

</configuration>
-->

<tripinfos xmlns:xsi="http://www.w3.org/2001/XMLSchema-instance" xsi:noNamespaceSchemaLocation="http://sumo.dlr.de/xsd/tripinfo_file.xsd">
    <tripinfo id="veh_1726924436.067832" depart="0.00" departLane="-E7_0" departPos="5.10" departSpeed="0.00" departDelay="0.00" arrival="123.00" arrivalLane="E8_1" arrivalPos="89.60" arrivalSpeed="14.09" duration="123.00" routeLength="193.45" waitingTime="100.00" waitingCount="1" stopTime="0.00" timeLoss="109.08" rerouteNo="0" devices="tripinfo_veh_1726924436.067832" vType="DEFAULT_VEHTYPE" speedFactor="1.06" vaporized=""/>
    <tripinfo id="veh_1726924457.236611" depart="95.00" departLane="-E7_0" departPos="5.10" departSpeed="0.00" departDelay="0.00" arrival="123.00" arrivalLane="-E6_0" arrivalPos="89.60" arrivalSpeed="12.18" duration="28.00" routeLength="183.13" waitingTime="6.00" waitingCount="1" stopTime="0.00" timeLoss="13.29" rerouteNo="0" devices="tripinfo_veh_1726924457.236611" vType="DEFAULT_VEHTYPE" speedFactor="0.94" vaporized=""/>
    <tripinfo id="veh_1726924458.2572548" depart="104.00" departLane="-E7_0" departPos="5.10" departSpeed="0.00" departDelay="0.00" arrival="125.00" arrivalLane="E8_1" arrivalPos="89.60" arrivalSpeed="13.41" duration="21.00" routeLength="193.45" waitingTime="0.00" waitingCount="0" stopTime="0.00" timeLoss="6.51" rerouteNo="0" devices="tripinfo_veh_1726924458.2572548" vType="DEFAULT_VEHTYPE" speedFactor="1.01" vaporized=""/>
    <tripinfo id="veh_1726924458.9622016" depart="110.00" departLane="-E7_0" departPos="5.10" departSpeed="0.00" departDelay="0.00" arrival="127.00" arrivalLane="E9_0" arrivalPos="89.60" arrivalSpeed="14.33" duration="17.00" routeLength="195.06" waitingTime="0.00" waitingCount="0" stopTime="0.00" timeLoss="3.85" rerouteNo="0" devices="tripinfo_veh_1726924458.9622016" vType="DEFAULT_VEHTYPE" speedFactor="1.08" vaporized=""/>
    <tripinfo id="veh_1726924459.6268075" depart="116.00" departLane="-E7_0" departPos="5.10" departSpeed="0.00" departDelay="0.00" arrival="136.00" arrivalLane="-E6_0" arrivalPos="89.60" arrivalSpeed="13.34" duration="20.00" routeLength="183.13" waitingTime="0.00" waitingCount="0" stopTime="0.00" timeLoss="5.89" rerouteNo="0" devices="tripinfo_veh_1726924459.6268075" vType="DEFAULT_VEHTYPE" speedFactor="1.03" vaporized=""/>
    <tripinfo id="veh_1726924460.3139095" depart="123.00" departLane="-E7_0" departPos="5.10" departSpeed="0.00" departDelay="0.00" arrival="317.00" arrivalLane="E9_0" arrivalPos="89.60" arrivalSpeed="11.36" duration="194.00" routeLength="195.06" waitingTime="168.00" waitingCount="1" stopTime="0.00" timeLoss="176.59" rerouteNo="0" devices="tripinfo_veh_1726924460.3139095" vType="DEFAULT_VEHTYPE" speedFactor="0.83" vaporized=""/>
    <tripinfo id="veh_1726924461.0015526" depart="129.00" departLane="-E7_0" departPos="5.10" departSpeed="0.00" departDelay="0.00" arrival="319.00" arrivalLane="E9_0" arrivalPos="89.60" arrivalSpeed="13.55" duration="190.00" routeLength="195.06" waitingTime="166.00" waitingCount="1" stopTime="0.00" timeLoss="175.70" rerouteNo="0" devices="tripinfo_veh_1726924461.0015526" vType="DEFAULT_VEHTYPE" speedFactor="1.05" vaporized=""/>
    <tripinfo id="veh_1726924472.3398101" depart="233.00" departLane="-E7_0" departPos="5.10" departSpeed="0.00" departDelay="0.00" arrival="321.00" arrivalLane="E8_1" arrivalPos="89.60" arrivalSpeed="12.11" duration="88.00" routeLength="193.45" waitingTime="61.00" waitingCount="1" stopTime="0.00" timeLoss="70.59" rerouteNo="0" devices="tripinfo_veh_1726924472.3398101" vType="DEFAULT_VEHTYPE" speedFactor="0.89" vaporized=""/>
    <tripinfo id="veh_1726924477.1047108" depart="277.00" departLane="-E7_0" departPos="5.10" departSpeed="0.00" departDelay="0.00" arrival="321.00" arrivalLane="E9_0" arrivalPos="89.60" arrivalSpeed="12.66" duration="44.00" routeLength="195.06" waitingTime="21.00" waitingCount="1" stopTime="0.00" timeLoss="28.84" rerouteNo="0" devices="tripinfo_veh_1726924477.1047108" vType="DEFAULT_VEHTYPE" speedFactor="0.94" vaporized=""/>
    <tripinfo id="veh_1726924479.7033117" depart="301.00" departLane="-E7_0" departPos="5.10" departSpeed="0.00" departDelay="0.00" arrival="321.00" arrivalLane="-E6_0" arrivalPos="89.60" arrivalSpeed="13.75" duration="20.00" routeLength="183.13" waitingTime="0.00" waitingCount="0" stopTime="0.00" timeLoss="5.91" rerouteNo="0" devices="tripinfo_veh_1726924479.7033117" vType="DEFAULT_VEHTYPE" speedFactor="1.03" vaporized=""/>
    <tripinfo id="veh_1726924479.7927723" depart="304.00" departLane="-E7_0" departPos="5.10" departSpeed="0.00" departDelay="3.00" arrival="324.00" arrivalLane="-E6_0" arrivalPos="89.60" arrivalSpeed="13.31" duration="20.00" routeLength="183.13" waitingTime="0.00" waitingCount="0" stopTime="0.00" timeLoss="6.11" rerouteNo="0" devices="tripinfo_veh_1726924479.7927723" vType="DEFAULT_VEHTYPE" speedFactor="1.05" vaporized=""/>
    <tripinfo id="veh_1726924479.083327" depart="295.00" departLane="-E7_0" departPos="5.10" departSpeed="0.00" departDelay="0.00" arrival="325.00" arrivalLane="E9_0" arrivalPos="89.60" arrivalSpeed="15.12" duration="30.00" routeLength="195.06" waitingTime="6.00" waitingCount="1" stopTime="0.00" timeLoss="16.48" rerouteNo="0" devices="tripinfo_veh_1726924479.083327" vType="DEFAULT_VEHTYPE" speedFactor="1.09" vaporized=""/>
    <tripinfo id="veh_1726924478.4075818" depart="289.00" departLane="-E7_0" departPos="5.10" departSpeed="0.00" departDelay="0.00" arrival="326.00" arrivalLane="E8_1" arrivalPos="89.60" arrivalSpeed="11.67" duration="37.00" routeLength="193.45" waitingTime="9.00" waitingCount="1" stopTime="0.00" timeLoss="19.28" rerouteNo="0" devices="tripinfo_veh_1726924478.4075818" vType="DEFAULT_VEHTYPE" speedFactor="0.86" vaporized=""/>
    <tripinfo id="veh_1726924479.7947714" depart="307.00" departLane="-E7_0" departPos="5.10" departSpeed="0.00" departDelay="6.00" arrival="327.00" arrivalLane="E9_0" arrivalPos="89.60" arrivalSpeed="15.45" duration="20.00" routeLength="195.06" waitingTime="0.00" waitingCount="0" stopTime="0.00" timeLoss="6.58" rerouteNo="0" devices="tripinfo_veh_1726924479.7947714" vType="DEFAULT_VEHTYPE" speedFactor="1.12" vaporized=""/>
    <tripinfo id="veh_1726924480.4393587" depart="308.00" departLane="-E7_0" departPos="5.10" departSpeed="0.00" departDelay="1.00" arrival="428.00" arrivalLane="E9_0" arrivalPos="89.60" arrivalSpeed="13.39" duration="120.00" routeLength="195.06" waitingTime="95.00" waitingCount="1" stopTime="0.00" timeLoss="105.77" rerouteNo="0" devices="tripinfo_veh_1726924480.4393587" vType="DEFAULT_VEHTYPE" speedFactor="0.99" vaporized=""/>
    <tripinfo id="veh_1726924484.6973636" depart="346.00" departLane="-E7_0" departPos="5.10" departSpeed="0.00" departDelay="0.00" arrival="431.00" arrivalLane="E9_0" arrivalPos="89.60" arrivalSpeed="12.75" duration="85.00" routeLength="195.06" waitingTime="58.00" waitingCount="1" stopTime="0.00" timeLoss="69.12" rerouteNo="0" devices="tripinfo_veh_1726924484.6973636" vType="DEFAULT_VEHTYPE" speedFactor="0.93" vaporized=""/>
    <tripinfo id="veh_1726924487.8454983" depart="375.00" departLane="-E7_0" departPos="5.10" departSpeed="0.00" departDelay="0.00" arrival="433.00" arrivalLane="E9_0" arrivalPos="89.60" arrivalSpeed="11.69" duration="58.00" routeLength="195.06" waitingTime="31.00" waitingCount="1" stopTime="0.00" timeLoss="41.40" rerouteNo="0" devices="tripinfo_veh_1726924487.8454983" vType="DEFAULT_VEHTYPE" speedFactor="0.88" vaporized=""/>
    <tripinfo id="veh_1726924489.4094741" depart="390.00" departLane="-E7_0" departPos="5.10" departSpeed="0.00" departDelay="0.00" arrival="436.00" arrivalLane="E8_1" arrivalPos="89.60" arrivalSpeed="12.57" duration="46.00" routeLength="193.45" waitingTime="19.00" waitingCount="1" stopTime="0.00" timeLoss="29.37" rerouteNo="0" devices="tripinfo_veh_1726924489.4094741" vType="DEFAULT_VEHTYPE" speedFactor="0.94" vaporized=""/>
    <tripinfo id="veh_1726924491.7543912" depart="411.00" departLane="-E7_0" departPos="5.10" departSpeed="0.00" departDelay="0.00" arrival="438.00" arrivalLane="E8_1" arrivalPos="89.60" arrivalSpeed="12.79" duration="27.00" routeLength="193.45" waitingTime="0.00" waitingCount="0" stopTime="0.00" timeLoss="10.63" rerouteNo="0" devices="tripinfo_veh_1726924491.7543912" vType="DEFAULT_VEHTYPE" speedFactor="0.94" vaporized=""/>
    <tripinfo id="veh_1726924504.573912" depart="528.00" departLane="-E7_0" departPos="5.10" departSpeed="0.00" departDelay="0.00" arrival="668.00" arrivalLane="E8_1" arrivalPos="89.60" arrivalSpeed="15.76" duration="140.00" routeLength="193.45" waitingTime="116.00" waitingCount="1" stopTime="0.00" timeLoss="126.93" rerouteNo="0" devices="tripinfo_veh_1726924504.573912" vType="DEFAULT_VEHTYPE" speedFactor="1.16" vaporized=""/>
    <tripinfo id="veh_1726924513.245577" depart="608.00" departLane="-E7_0" departPos="5.10" departSpeed="0.00" departDelay="0.00" arrival="670.00" arrivalLane="E8_1" arrivalPos="89.60" arrivalSpeed="14.00" duration="62.00" routeLength="193.45" waitingTime="36.00" waitingCount="1" stopTime="0.00" timeLoss="47.62" rerouteNo="0" devices="tripinfo_veh_1726924513.245577" vType="DEFAULT_VEHTYPE" speedFactor="1.02" vaporized=""/>
    <tripinfo id="veh_1726924518.1010656" depart="652.00" departLane="-E7_0" departPos="5.10" departSpeed="0.00" departDelay="0.00" arrival="672.00" arrivalLane="-E6_0" arrivalPos="89.60" arrivalSpeed="13.83" duration="20.00" routeLength="183.13" waitingTime="0.00" waitingCount="0" stopTime="0.00" timeLoss="5.61" rerouteNo="0" devices="tripinfo_veh_1726924518.1010656" vType="DEFAULT_VEHTYPE" speedFactor="1.01" vaporized=""/>
    <tripinfo id="veh_1726924518.768498" depart="659.00" departLane="-E7_0" departPos="5.10" departSpeed="0.00" departDelay="0.00" arrival="677.00" arrivalLane="E9_0" arrivalPos="89.60" arrivalSpeed="12.86" duration="18.00" routeLength="195.06" waitingTime="0.00" waitingCount="0" stopTime="0.00" timeLoss="3.54" rerouteNo="0" devices="tripinfo_veh_1726924518.768498" vType="DEFAULT_VEHTYPE" speedFactor="0.97" vaporized=""/>
    <tripinfo id="veh_1726924521.3313613" depart="682.00" departLane="-E7_0" departPos="5.10" departSpeed="0.00" departDelay="0.00" arrival="701.00" arrivalLane="E9_0" arrivalPos="89.60" arrivalSpeed="11.79" duration="19.00" routeLength="195.06" waitingTime="0.00" waitingCount="0" stopTime="0.00" timeLoss="3.11" rerouteNo="0" devices="tripinfo_veh_1726924521.3313613" vType="DEFAULT_VEHTYPE" speedFactor="0.89" vaporized=""/>
    <tripinfo id="veh_1726924521.3769941" depart="684.00" departLane="-E7_0" departPos="5.10" departSpeed="0.00" departDelay="2.00" arrival="705.00" arrivalLane="E9_0" arrivalPos="89.60" arrivalSpeed="10.99" duration="21.00" routeLength="195.06" waitingTime="0.00" waitingCount="0" stopTime="0.00" timeLoss="3.52" rerouteNo="0" devices="tripinfo_veh_1726924521.3769941" vType="DEFAULT_VEHTYPE" speedFactor="0.83" vaporized=""/>
    <tripinfo id="veh_1726924521.3789957" depart="686.00" departLane="-E7_0" departPos="5.10" departSpeed="0.00" departDelay="4.00" arrival="708.00" arrivalLane="E8_1" arrivalPos="89.60" arrivalSpeed="11.44" duration="22.00" routeLength="193.45" waitingTime="0.00" waitingCount="0" stopTime="0.00" timeLoss="5.11" rerouteNo="0" devices="tripinfo_veh_1726924521.3789957" vType="DEFAULT_VEHTYPE" speedFactor="0.87" vaporized=""/>
    <tripinfo id="veh_1726924536.890879" depart="825.00" departLane="-E7_0" departPos="5.10" departSpeed="0.00" departDelay="0.00" arrival="843.00" arrivalLane="-E6_0" arrivalPos="89.60" arrivalSpeed="15.54" duration="18.00" routeLength="183.13" waitingTime="0.00" waitingCount="0" stopTime="0.00" timeLoss="5.58" rerouteNo="0" devices="tripinfo_veh_1726924536.890879" vType="DEFAULT_VEHTYPE" speedFactor="1.13" vaporized=""/>
    <tripinfo id="veh_1726924524.0634348" depart="707.00" departLane="-E7_0" departPos="5.10" departSpeed="0.00" departDelay="0.00" arrival="844.00" arrivalLane="E9_0" arrivalPos="89.60" arrivalSpeed="12.44" duration="137.00" routeLength="195.06" waitingTime="113.00" waitingCount="1" stopTime="0.00" timeLoss="121.51" rerouteNo="0" devices="tripinfo_veh_1726924524.0634348" vType="DEFAULT_VEHTYPE" speedFactor="0.92" vaporized=""/>
    <tripinfo id="veh_1726924526.6160178" depart="731.00" departLane="-E7_0" departPos="5.10" departSpeed="0.00" departDelay="0.00" arrival="847.00" arrivalLane="E8_1" arrivalPos="89.60" arrivalSpeed="12.22" duration="116.00" routeLength="193.45" waitingTime="92.00" waitingCount="1" stopTime="0.00" timeLoss="99.63" rerouteNo="0" devices="tripinfo_veh_1726924526.6160178" vType="DEFAULT_VEHTYPE" speedFactor="0.95" vaporized=""/>
    <tripinfo id="veh_1726924539.0463097" depart="844.00" departLane="-E7_0" departPos="5.10" departSpeed="0.00" departDelay="0.00" arrival="1051.00" arrivalLane="-E6_0" arrivalPos="89.60" arrivalSpeed="11.94" duration="207.00" routeLength="183.13" waitingTime="185.00" waitingCount="1" stopTime="0.00" timeLoss="192.17" rerouteNo="0" devices="tripinfo_veh_1726924539.0463097" vType="DEFAULT_VEHTYPE" speedFactor="0.93" vaporized=""/>
    <tripinfo id="veh_1726924559.9193273" depart="1036.00" departLane="-E7_0" departPos="5.10" departSpeed="0.00" departDelay="0.00" arrival="1054.00" arrivalLane="-E6_0" arrivalPos="89.60" arrivalSpeed="15.29" duration="18.00" routeLength="183.13" waitingTime="0.00" waitingCount="0" stopTime="0.00" timeLoss="5.98" rerouteNo="0" devices="tripinfo_veh_1726924559.9193273" vType="DEFAULT_VEHTYPE" speedFactor="1.18" vaporized=""/>
    <tripinfo id="veh_1726924563.2317908" depart="1066.00" departLane="-E7_0" departPos="5.10" departSpeed="0.00" departDelay="0.00" arrival="1099.00" arrivalLane="E9_0" arrivalPos="89.60" arrivalSpeed="15.88" duration="33.00" routeLength="195.06" waitingTime="11.00" waitingCount="1" stopTime="0.00" timeLoss="20.15" rerouteNo="0" devices="tripinfo_veh_1726924563.2317908" vType="DEFAULT_VEHTYPE" speedFactor="1.15" vaporized=""/>
    <tripinfo id="veh_1726924563.8896408" depart="1072.00" departLane="-E7_0" departPos="5.10" departSpeed="0.00" departDelay="0.00" arrival="1099.00" arrivalLane="-E6_0" arrivalPos="89.60" arrivalSpeed="13.45" duration="27.00" routeLength="183.13" waitingTime="5.00" waitingCount="1" stopTime="0.00" timeLoss="12.59" rerouteNo="0" devices="tripinfo_veh_1726924563.8896408" vType="DEFAULT_VEHTYPE" speedFactor="1.01" vaporized=""/>
    <tripinfo id="veh_1726924565.943099" depart="1091.00" departLane="-E7_0" departPos="5.10" departSpeed="0.00" departDelay="0.00" arrival="1110.00" arrivalLane="-E6_0" arrivalPos="89.60" arrivalSpeed="15.85" duration="19.00" routeLength="183.13" waitingTime="0.00" waitingCount="0" stopTime="0.00" timeLoss="6.73" rerouteNo="0" devices="tripinfo_veh_1726924565.943099" vType="DEFAULT_VEHTYPE" speedFactor="1.17" vaporized=""/>
    <tripinfo id="veh_1726924568.536544" depart="1115.00" departLane="-E7_0" departPos="5.10" departSpeed="0.00" departDelay="0.00" arrival="1243.00" arrivalLane="-E6_0" arrivalPos="89.60" arrivalSpeed="12.54" duration="128.00" routeLength="183.13" waitingTime="105.00" waitingCount="1" stopTime="0.00" timeLoss="113.90" rerouteNo="0" devices="tripinfo_veh_1726924568.536544" vType="DEFAULT_VEHTYPE" speedFactor="0.99" vaporized=""/>
    <tripinfo id="veh_1726924579.8061004" depart="1218.00" departLane="-E7_0" departPos="5.10" departSpeed="0.00" departDelay="0.00" arrival="1245.00" arrivalLane="-E6_0" arrivalPos="89.60" arrivalSpeed="13.60" duration="27.00" routeLength="183.13" waitingTime="3.00" waitingCount="1" stopTime="0.00" timeLoss="13.15" rerouteNo="0" devices="tripinfo_veh_1726924579.8061004" vType="DEFAULT_VEHTYPE" speedFactor="1.02" vaporized=""/>
</tripinfos>
