<?xml version="1.0" encoding="UTF-8"?>

<!-- generated on 2024-09-21 15:21:35 by Eclipse SUMO sumo Version 1.20.0
<configuration xmlns:xsi="http://www.w3.org/2001/XMLSchema-instance" xsi:noNamespaceSchemaLocation="http://sumo.dlr.de/xsd/sumoConfiguration.xsd">

    <input>
        <net-file value="sumo_simulation/maps/intersection.net.xml"/>
        <route-files value="sumo_simulation/maps/intersection.rou.xml"/>
    </input>

    <output>
        <tripinfo-output value="sumo_simulation/tripinfo.xml"/>
    </output>

    <time>
        <begin value="0"/>
        <end value="200"/>
    </time>

    <report>
        <verbose value="true"/>
        <no-step-log value="true"/>
    </report>

    <traci_server>
        <remote-port value="62739"/>
    </traci_server>

</configuration>
-->

<tripinfos xmlns:xsi="http://www.w3.org/2001/XMLSchema-instance" xsi:noNamespaceSchemaLocation="http://sumo.dlr.de/xsd/tripinfo_file.xsd">
    <tripinfo id="flow4.0" depart="0.00" departLane="-E8_0" departPos="5.10" departSpeed="0.00" departDelay="0.00" arrival="26.00" arrivalLane="E7_0" arrivalPos="89.60" arrivalSpeed="13.25" duration="26.00" routeLength="183.13" waitingTime="0.00" waitingCount="0" stopTime="0.00" timeLoss="11.88" rerouteNo="0" devices="tripinfo_flow4.0" vType="car" speedFactor="1.08" vaporized=""/>
    <tripinfo id="flow2.0" depart="5.00" departLane="-E7_0" departPos="5.10" departSpeed="0.00" departDelay="5.00" arrival="29.00" arrivalLane="E9_0" arrivalPos="89.60" arrivalSpeed="12.99" duration="24.00" routeLength="195.06" waitingTime="0.00" waitingCount="0" stopTime="0.00" timeLoss="8.58" rerouteNo="0" devices="tripinfo_flow2.0" vType="car" speedFactor="0.94" vaporized=""/>
    <tripinfo id="flow1.0" depart="0.00" departLane="-E7_0" departPos="5.10" departSpeed="0.00" departDelay="0.00" arrival="30.00" arrivalLane="-E6_0" arrivalPos="89.60" arrivalSpeed="12.22" duration="30.00" routeLength="183.13" waitingTime="0.00" waitingCount="0" stopTime="0.00" timeLoss="15.91" rerouteNo="0" devices="tripinfo_flow1.0" vType="car" speedFactor="1.06" vaporized=""/>
    <tripinfo id="flow3.0" depart="10.00" departLane="-E7_0" departPos="5.10" departSpeed="0.00" departDelay="10.00" arrival="34.00" arrivalLane="E8_1" arrivalPos="89.60" arrivalSpeed="13.68" duration="24.00" routeLength="193.45" waitingTime="0.00" waitingCount="0" stopTime="0.00" timeLoss="9.26" rerouteNo="0" devices="tripinfo_flow3.0" vType="car" speedFactor="1.01" vaporized=""/>
    <tripinfo id="flow1.1" depart="13.00" departLane="-E7_0" departPos="5.10" departSpeed="0.00" departDelay="3.00" arrival="40.00" arrivalLane="-E6_0" arrivalPos="89.60" arrivalSpeed="13.25" duration="27.00" routeLength="183.13" waitingTime="0.00" waitingCount="0" stopTime="0.00" timeLoss="12.22" rerouteNo="0" devices="tripinfo_flow1.1" vType="car" speedFactor="1.03" vaporized=""/>
    <tripinfo id="flow2.1" depart="18.00" departLane="-E7_0" departPos="5.10" departSpeed="0.00" departDelay="8.00" arrival="42.00" arrivalLane="E9_0" arrivalPos="89.60" arrivalSpeed="11.17" duration="24.00" routeLength="195.06" waitingTime="0.00" waitingCount="0" stopTime="0.00" timeLoss="6.81" rerouteNo="0" devices="tripinfo_flow2.1" vType="car" speedFactor="0.83" vaporized=""/>
    <tripinfo id="flow3.1" depart="22.00" departLane="-E7_0" departPos="5.10" departSpeed="0.00" departDelay="12.00" arrival="47.00" arrivalLane="E8_1" arrivalPos="89.60" arrivalSpeed="13.65" duration="25.00" routeLength="193.45" waitingTime="0.00" waitingCount="0" stopTime="0.00" timeLoss="10.04" rerouteNo="0" devices="tripinfo_flow3.1" vType="car" speedFactor="1.05" vaporized=""/>
    <tripinfo id="flow1.2" depart="26.00" departLane="-E7_0" departPos="5.10" departSpeed="0.00" departDelay="6.00" arrival="52.00" arrivalLane="-E6_0" arrivalPos="89.60" arrivalSpeed="12.72" duration="26.00" routeLength="183.13" waitingTime="0.00" waitingCount="0" stopTime="0.00" timeLoss="11.20" rerouteNo="0" devices="tripinfo_flow1.2" vType="car" speedFactor="0.94" vaporized=""/>
    <tripinfo id="flow2.2" depart="30.00" departLane="-E7_0" departPos="5.10" departSpeed="0.00" departDelay="10.00" arrival="55.00" arrivalLane="E9_0" arrivalPos="89.60" arrivalSpeed="11.80" duration="25.00" routeLength="195.06" waitingTime="0.00" waitingCount="0" stopTime="0.00" timeLoss="8.02" rerouteNo="0" devices="tripinfo_flow2.2" vType="car" speedFactor="0.86" vaporized=""/>
    <tripinfo id="flow4.1" depart="10.00" departLane="-E8_0" departPos="5.10" departSpeed="0.00" departDelay="0.00" arrival="64.00" arrivalLane="E7_0" arrivalPos="89.60" arrivalSpeed="11.82" duration="54.00" routeLength="183.13" waitingTime="22.00" waitingCount="1" stopTime="0.00" timeLoss="38.13" rerouteNo="0" devices="tripinfo_flow4.1" vType="car" speedFactor="0.89" vaporized=""/>
    <tripinfo id="flow4.2" depart="20.00" departLane="-E8_0" departPos="5.10" departSpeed="0.00" departDelay="0.00" arrival="67.00" arrivalLane="E7_0" arrivalPos="89.60" arrivalSpeed="12.24" duration="47.00" routeLength="183.13" waitingTime="12.00" waitingCount="1" stopTime="0.00" timeLoss="32.50" rerouteNo="0" devices="tripinfo_flow4.2" vType="car" speedFactor="1.03" vaporized=""/>
    <tripinfo id="flow4.3" depart="30.00" departLane="-E8_0" departPos="5.10" departSpeed="0.00" departDelay="0.00" arrival="69.00" arrivalLane="E7_0" arrivalPos="89.60" arrivalSpeed="12.64" duration="39.00" routeLength="183.13" waitingTime="4.00" waitingCount="1" stopTime="0.00" timeLoss="23.53" rerouteNo="0" devices="tripinfo_flow4.3" vType="car" speedFactor="0.93" vaporized=""/>
    <tripinfo id="flow4.4" depart="40.00" departLane="-E8_0" departPos="5.10" departSpeed="0.00" departDelay="0.00" arrival="70.00" arrivalLane="E7_0" arrivalPos="89.60" arrivalSpeed="12.74" duration="30.00" routeLength="183.13" waitingTime="0.00" waitingCount="0" stopTime="0.00" timeLoss="16.09" rerouteNo="0" devices="tripinfo_flow4.4" vType="car" speedFactor="1.16" vaporized=""/>
    <tripinfo id="flow1.3" depart="37.00" departLane="-E7_0" departPos="5.10" departSpeed="0.00" departDelay="7.00" arrival="80.00" arrivalLane="-E6_0" arrivalPos="89.60" arrivalSpeed="12.67" duration="43.00" routeLength="183.13" waitingTime="10.00" waitingCount="1" stopTime="0.00" timeLoss="28.87" rerouteNo="0" devices="tripinfo_flow1.3" vType="car" speedFactor="1.05" vaporized=""/>
    <tripinfo id="flow3.2" depart="34.00" departLane="-E7_0" departPos="5.10" departSpeed="0.00" departDelay="14.00" arrival="81.00" arrivalLane="E8_1" arrivalPos="89.60" arrivalSpeed="13.27" duration="47.00" routeLength="193.45" waitingTime="16.00" waitingCount="1" stopTime="0.00" timeLoss="31.69" rerouteNo="0" devices="tripinfo_flow3.2" vType="car" speedFactor="1.09" vaporized=""/>
    <tripinfo id="flow1.4" depart="50.00" departLane="-E7_0" departPos="5.10" departSpeed="0.00" departDelay="10.00" arrival="82.00" arrivalLane="-E6_0" arrivalPos="89.60" arrivalSpeed="12.18" duration="32.00" routeLength="183.13" waitingTime="0.00" waitingCount="0" stopTime="0.00" timeLoss="15.54" rerouteNo="0" devices="tripinfo_flow1.4" vType="car" speedFactor="0.88" vaporized=""/>
    <tripinfo id="flow2.3" depart="42.00" departLane="-E7_0" departPos="5.10" departSpeed="0.00" departDelay="12.00" arrival="83.00" arrivalLane="E9_0" arrivalPos="89.60" arrivalSpeed="13.70" duration="41.00" routeLength="195.06" waitingTime="5.00" waitingCount="1" stopTime="0.00" timeLoss="26.73" rerouteNo="0" devices="tripinfo_flow2.3" vType="car" speedFactor="1.12" vaporized=""/>
    <tripinfo id="flow3.3" depart="46.00" departLane="-E7_0" departPos="5.10" departSpeed="0.00" departDelay="16.00" arrival="85.00" arrivalLane="E8_1" arrivalPos="89.60" arrivalSpeed="13.47" duration="39.00" routeLength="193.45" waitingTime="3.00" waitingCount="1" stopTime="0.00" timeLoss="24.01" rerouteNo="0" devices="tripinfo_flow3.3" vType="car" speedFactor="0.99" vaporized=""/>
    <tripinfo id="flow2.4" depart="55.00" departLane="-E7_0" departPos="5.10" departSpeed="0.00" departDelay="15.00" arrival="87.00" arrivalLane="E9_0" arrivalPos="89.60" arrivalSpeed="12.71" duration="32.00" routeLength="195.06" waitingTime="0.00" waitingCount="0" stopTime="0.00" timeLoss="16.60" rerouteNo="0" devices="tripinfo_flow2.4" vType="car" speedFactor="0.94" vaporized=""/>
    <tripinfo id="flow1.5" depart="61.00" departLane="-E7_0" departPos="5.10" departSpeed="0.00" departDelay="11.00" arrival="87.00" arrivalLane="-E6_0" arrivalPos="89.60" arrivalSpeed="12.98" duration="26.00" routeLength="183.13" waitingTime="0.00" waitingCount="0" stopTime="0.00" timeLoss="12.12" rerouteNo="0" devices="tripinfo_flow1.5" vType="car" speedFactor="1.02" vaporized=""/>
    <tripinfo id="flow3.4" depart="58.00" departLane="-E7_0" departPos="5.10" departSpeed="0.00" departDelay="18.00" arrival="89.00" arrivalLane="E8_1" arrivalPos="89.60" arrivalSpeed="12.81" duration="31.00" routeLength="193.45" waitingTime="0.00" waitingCount="0" stopTime="0.00" timeLoss="14.50" rerouteNo="0" devices="tripinfo_flow3.4" vType="car" speedFactor="0.94" vaporized=""/>
    <tripinfo id="flow2.5" depart="65.00" departLane="-E7_0" departPos="5.10" departSpeed="0.00" departDelay="15.00" arrival="90.00" arrivalLane="E9_0" arrivalPos="89.60" arrivalSpeed="13.45" duration="25.00" routeLength="195.06" waitingTime="0.00" waitingCount="0" stopTime="0.00" timeLoss="10.22" rerouteNo="0" devices="tripinfo_flow2.5" vType="car" speedFactor="1.01" vaporized=""/>
    <tripinfo id="flow3.5" depart="68.00" departLane="-E7_0" departPos="5.10" departSpeed="0.00" departDelay="18.00" arrival="93.00" arrivalLane="E8_1" arrivalPos="89.60" arrivalSpeed="13.05" duration="25.00" routeLength="193.45" waitingTime="0.00" waitingCount="0" stopTime="0.00" timeLoss="9.64" rerouteNo="0" devices="tripinfo_flow3.5" vType="car" speedFactor="0.97" vaporized=""/>
    <tripinfo id="flow1.6" depart="71.00" departLane="-E7_0" departPos="5.10" departSpeed="0.00" departDelay="11.00" arrival="99.00" arrivalLane="-E6_0" arrivalPos="89.60" arrivalSpeed="11.25" duration="28.00" routeLength="183.13" waitingTime="0.00" waitingCount="0" stopTime="0.00" timeLoss="10.75" rerouteNo="0" devices="tripinfo_flow1.6" vType="car" speedFactor="0.83" vaporized=""/>
    <tripinfo id="flow2.6" depart="76.00" departLane="-E7_0" departPos="5.10" departSpeed="0.00" departDelay="16.00" arrival="100.00" arrivalLane="E9_0" arrivalPos="89.60" arrivalSpeed="11.84" duration="24.00" routeLength="195.06" waitingTime="0.00" waitingCount="0" stopTime="0.00" timeLoss="7.63" rerouteNo="0" devices="tripinfo_flow2.6" vType="car" speedFactor="0.87" vaporized=""/>
    <tripinfo id="flow3.6" depart="79.00" departLane="-E7_0" departPos="5.10" departSpeed="0.00" departDelay="19.00" arrival="104.00" arrivalLane="E8_1" arrivalPos="89.60" arrivalSpeed="12.37" duration="25.00" routeLength="193.45" waitingTime="0.00" waitingCount="0" stopTime="0.00" timeLoss="9.04" rerouteNo="0" devices="tripinfo_flow3.6" vType="car" speedFactor="0.92" vaporized=""/>
    <tripinfo id="flow4.5" depart="50.00" departLane="-E8_0" departPos="5.10" departSpeed="0.00" departDelay="0.00" arrival="112.00" arrivalLane="E7_0" arrivalPos="89.60" arrivalSpeed="11.89" duration="62.00" routeLength="183.13" waitingTime="30.00" waitingCount="1" stopTime="0.00" timeLoss="46.34" rerouteNo="0" devices="tripinfo_flow4.5" vType="car" speedFactor="0.89" vaporized=""/>
    <tripinfo id="flow4.6" depart="60.00" departLane="-E8_0" departPos="5.10" departSpeed="0.00" departDelay="0.00" arrival="115.00" arrivalLane="E7_0" arrivalPos="89.60" arrivalSpeed="12.74" duration="55.00" routeLength="183.13" waitingTime="19.00" waitingCount="1" stopTime="0.00" timeLoss="39.29" rerouteNo="0" devices="tripinfo_flow4.6" vType="car" speedFactor="0.95" vaporized=""/>
    <tripinfo id="flow4.7" depart="70.00" departLane="-E8_0" departPos="5.10" departSpeed="0.00" departDelay="0.00" arrival="117.00" arrivalLane="E7_0" arrivalPos="89.60" arrivalSpeed="13.19" duration="47.00" routeLength="183.13" waitingTime="10.00" waitingCount="1" stopTime="0.00" timeLoss="32.63" rerouteNo="0" devices="tripinfo_flow4.7" vType="car" speedFactor="1.15" vaporized=""/>
    <tripinfo id="flow4.8" depart="80.00" departLane="-E8_0" departPos="5.10" departSpeed="0.00" departDelay="0.00" arrival="120.00" arrivalLane="E7_0" arrivalPos="89.60" arrivalSpeed="12.79" duration="40.00" routeLength="183.13" waitingTime="2.00" waitingCount="1" stopTime="0.00" timeLoss="25.43" rerouteNo="0" devices="tripinfo_flow4.8" vType="car" speedFactor="1.02" vaporized=""/>
    <tripinfo id="flow4.9" depart="90.00" departLane="-E8_0" departPos="5.10" departSpeed="0.00" departDelay="0.00" arrival="123.00" arrivalLane="E7_0" arrivalPos="89.60" arrivalSpeed="12.50" duration="33.00" routeLength="183.13" waitingTime="0.00" waitingCount="0" stopTime="0.00" timeLoss="16.49" rerouteNo="0" devices="tripinfo_flow4.9" vType="car" speedFactor="0.90" vaporized=""/>
    <tripinfo id="flow1.7" depart="82.00" departLane="-E7_0" departPos="5.10" departSpeed="0.00" departDelay="12.00" arrival="128.00" arrivalLane="-E6_0" arrivalPos="89.60" arrivalSpeed="12.07" duration="46.00" routeLength="183.13" waitingTime="15.00" waitingCount="1" stopTime="0.00" timeLoss="32.11" rerouteNo="0" devices="tripinfo_flow1.7" vType="car" speedFactor="1.13" vaporized=""/>
    <tripinfo id="flow2.7" depart="86.00" departLane="-E7_0" departPos="5.10" departSpeed="0.00" departDelay="16.00" arrival="129.00" arrivalLane="E9_0" arrivalPos="89.60" arrivalSpeed="12.47" duration="43.00" routeLength="195.06" waitingTime="11.00" waitingCount="1" stopTime="0.00" timeLoss="27.69" rerouteNo="0" devices="tripinfo_flow2.7" vType="car" speedFactor="0.93" vaporized=""/>
    <tripinfo id="flow1.8" depart="92.00" departLane="-E7_0" departPos="5.10" departSpeed="0.00" departDelay="12.00" arrival="130.00" arrivalLane="-E6_0" arrivalPos="89.60" arrivalSpeed="12.79" duration="38.00" routeLength="183.13" waitingTime="3.00" waitingCount="1" stopTime="0.00" timeLoss="23.72" rerouteNo="0" devices="tripinfo_flow1.8" vType="car" speedFactor="1.01" vaporized=""/>
    <tripinfo id="flow3.7" depart="89.00" departLane="-E7_0" departPos="5.10" departSpeed="0.00" departDelay="19.00" arrival="131.00" arrivalLane="E8_1" arrivalPos="89.60" arrivalSpeed="13.63" duration="42.00" routeLength="193.45" waitingTime="7.00" waitingCount="1" stopTime="0.00" timeLoss="27.14" rerouteNo="0" devices="tripinfo_flow3.7" vType="car" speedFactor="1.18" vaporized=""/>
    <tripinfo id="flow1.9" depart="102.00" departLane="-E7_0" departPos="5.10" departSpeed="0.00" departDelay="12.00" arrival="132.00" arrivalLane="-E6_0" arrivalPos="89.60" arrivalSpeed="13.31" duration="30.00" routeLength="183.13" waitingTime="0.00" waitingCount="0" stopTime="0.00" timeLoss="15.08" rerouteNo="0" devices="tripinfo_flow1.9" vType="car" speedFactor="0.97" vaporized=""/>
    <tripinfo id="flow2.8" depart="96.00" departLane="-E7_0" departPos="5.10" departSpeed="0.00" departDelay="16.00" arrival="133.00" arrivalLane="E9_0" arrivalPos="89.60" arrivalSpeed="13.73" duration="37.00" routeLength="195.06" waitingTime="2.00" waitingCount="1" stopTime="0.00" timeLoss="22.46" rerouteNo="0" devices="tripinfo_flow2.8" vType="car" speedFactor="1.17" vaporized=""/>
    <tripinfo id="flow3.8" depart="99.00" departLane="-E7_0" departPos="5.10" departSpeed="0.00" departDelay="19.00" arrival="136.00" arrivalLane="E8_1" arrivalPos="89.60" arrivalSpeed="13.69" duration="37.00" routeLength="193.45" waitingTime="0.00" waitingCount="0" stopTime="0.00" timeLoss="21.44" rerouteNo="0" devices="tripinfo_flow3.8" vType="car" speedFactor="0.99" vaporized=""/>
    <tripinfo id="flow2.9" depart="106.00" departLane="-E7_0" departPos="5.10" departSpeed="0.00" departDelay="16.00" arrival="137.00" arrivalLane="E9_0" arrivalPos="89.60" arrivalSpeed="13.67" duration="31.00" routeLength="195.06" waitingTime="0.00" waitingCount="0" stopTime="0.00" timeLoss="16.57" rerouteNo="0" devices="tripinfo_flow2.9" vType="car" speedFactor="1.18" vaporized=""/>
    <tripinfo id="flow1.10" depart="111.00" departLane="-E7_0" departPos="5.10" departSpeed="0.00" departDelay="11.00" arrival="137.00" arrivalLane="-E6_0" arrivalPos="89.60" arrivalSpeed="12.61" duration="26.00" routeLength="183.13" waitingTime="0.00" waitingCount="0" stopTime="0.00" timeLoss="11.96" rerouteNo="0" devices="tripinfo_flow1.10" vType="car" speedFactor="1.03" vaporized=""/>
    <tripinfo id="flow3.9" depart="108.00" departLane="-E7_0" departPos="5.10" departSpeed="0.00" departDelay="18.00" arrival="139.00" arrivalLane="E8_1" arrivalPos="89.60" arrivalSpeed="13.50" duration="31.00" routeLength="193.45" waitingTime="0.00" waitingCount="0" stopTime="0.00" timeLoss="16.06" rerouteNo="0" devices="tripinfo_flow3.9" vType="car" speedFactor="1.10" vaporized=""/>
    <tripinfo id="flow2.10" depart="115.00" departLane="-E7_0" departPos="5.10" departSpeed="0.00" departDelay="15.00" arrival="141.00" arrivalLane="E9_0" arrivalPos="89.60" arrivalSpeed="13.11" duration="26.00" routeLength="195.06" waitingTime="0.00" waitingCount="0" stopTime="0.00" timeLoss="10.64" rerouteNo="0" devices="tripinfo_flow2.10" vType="car" speedFactor="0.96" vaporized=""/>
    <tripinfo id="flow3.10" depart="118.00" departLane="-E7_0" departPos="5.10" departSpeed="0.00" departDelay="18.00" arrival="144.00" arrivalLane="E8_1" arrivalPos="89.60" arrivalSpeed="13.40" duration="26.00" routeLength="193.45" waitingTime="0.00" waitingCount="0" stopTime="0.00" timeLoss="11.27" rerouteNo="0" devices="tripinfo_flow3.10" vType="car" speedFactor="1.09" vaporized=""/>
    <tripinfo id="flow1.11" depart="121.00" departLane="-E7_0" departPos="5.10" departSpeed="0.00" departDelay="11.00" arrival="146.00" arrivalLane="-E6_0" arrivalPos="89.60" arrivalSpeed="13.22" duration="25.00" routeLength="183.13" waitingTime="0.00" waitingCount="0" stopTime="0.00" timeLoss="11.07" rerouteNo="0" devices="tripinfo_flow1.11" vType="car" speedFactor="1.04" vaporized=""/>
    <tripinfo id="flow2.11" depart="125.00" departLane="-E7_0" departPos="5.10" departSpeed="0.00" departDelay="15.00" arrival="148.00" arrivalLane="E9_0" arrivalPos="89.60" arrivalSpeed="13.42" duration="23.00" routeLength="195.06" waitingTime="0.00" waitingCount="0" stopTime="0.00" timeLoss="8.76" rerouteNo="0" devices="tripinfo_flow2.11" vType="car" speedFactor="1.09" vaporized=""/>
    <tripinfo id="flow3.11" depart="128.00" departLane="-E7_0" departPos="5.10" departSpeed="0.00" departDelay="18.00" arrival="153.00" arrivalLane="E8_1" arrivalPos="89.60" arrivalSpeed="13.76" duration="25.00" routeLength="193.45" waitingTime="0.00" waitingCount="0" stopTime="0.00" timeLoss="10.00" rerouteNo="0" devices="tripinfo_flow3.11" vType="car" speedFactor="1.00" vaporized=""/>
