<?xml version="1.0" encoding="UTF-8"?>

<!-- generated on 2024-09-21 15:54:33 by Eclipse SUMO GUI Version 1.20.0
<configuration xmlns:xsi="http://www.w3.org/2001/XMLSchema-instance" xsi:noNamespaceSchemaLocation="http://sumo.dlr.de/xsd/sumoConfiguration.xsd">

    <input>
        <net-file value="sumo_simulation/maps/intersection.net.xml"/>
        <route-files value="sumo_simulation/maps/intersection.rou.xml"/>
    </input>

    <output>
        <tripinfo-output value="sumo_simulation/tripinfo.xml"/>
    </output>

    <time>
        <begin value="0"/>
        <end value="200"/>
    </time>

    <report>
        <verbose value="true"/>
        <no-step-log value="true"/>
    </report>

    <traci_server>
        <remote-port value="63624"/>
    </traci_server>

</configuration>
-->

<tripinfos xmlns:xsi="http://www.w3.org/2001/XMLSchema-instance" xsi:noNamespaceSchemaLocation="http://sumo.dlr.de/xsd/tripinfo_file.xsd">
    <tripinfo id="flow4.0" depart="0.00" departLane="-E8_0" departPos="5.10" departSpeed="0.00" departDelay="0.00" arrival="26.00" arrivalLane="E7_0" arrivalPos="89.60" arrivalSpeed="13.18" duration="26.00" routeLength="183.13" waitingTime="0.00" waitingCount="0" stopTime="0.00" timeLoss="11.35" rerouteNo="0" devices="tripinfo_flow4.0" vType="car" speedFactor="1.08" vaporized=""/>
    <tripinfo id="flow2.0" depart="5.00" departLane="-E7_0" departPos="5.10" departSpeed="0.00" departDelay="5.00" arrival="29.00" arrivalLane="E9_0" arrivalPos="89.60" arrivalSpeed="12.99" duration="24.00" routeLength="195.06" waitingTime="0.00" waitingCount="0" stopTime="0.00" timeLoss="8.58" rerouteNo="0" devices="tripinfo_flow2.0" vType="car" speedFactor="0.94" vaporized=""/>
    <tripinfo id="flow1.0" depart="0.00" departLane="-E7_0" departPos="5.10" departSpeed="0.00" departDelay="0.00" arrival="30.00" arrivalLane="-E6_0" arrivalPos="89.60" arrivalSpeed="12.22" duration="30.00" routeLength="183.13" waitingTime="0.00" waitingCount="0" stopTime="0.00" timeLoss="15.91" rerouteNo="0" devices="tripinfo_flow1.0" vType="car" speedFactor="1.06" vaporized=""/>
    <tripinfo id="flow3.0" depart="10.00" departLane="-E7_0" departPos="5.10" departSpeed="0.00" departDelay="10.00" arrival="34.00" arrivalLane="E8_1" arrivalPos="89.60" arrivalSpeed="13.68" duration="24.00" routeLength="193.45" waitingTime="0.00" waitingCount="0" stopTime="0.00" timeLoss="9.26" rerouteNo="0" devices="tripinfo_flow3.0" vType="car" speedFactor="1.01" vaporized=""/>
    <tripinfo id="flow1.1" depart="13.00" departLane="-E7_0" departPos="5.10" departSpeed="0.00" departDelay="3.00" arrival="40.00" arrivalLane="-E6_0" arrivalPos="89.60" arrivalSpeed="13.36" duration="27.00" routeLength="183.13" waitingTime="0.00" waitingCount="0" stopTime="0.00" timeLoss="12.12" rerouteNo="0" devices="tripinfo_flow1.1" vType="car" speedFactor="1.05" vaporized=""/>
    <tripinfo id="flow2.1" depart="18.00" departLane="-E7_0" departPos="5.10" departSpeed="0.00" departDelay="8.00" arrival="41.00" arrivalLane="E9_0" arrivalPos="89.60" arrivalSpeed="13.85" duration="23.00" routeLength="195.06" waitingTime="0.00" waitingCount="0" stopTime="0.00" timeLoss="8.33" rerouteNo="0" devices="tripinfo_flow2.1" vType="car" speedFactor="1.12" vaporized=""/>
    <tripinfo id="flow7.0" depart="0.00" departLane="-E9_0" departPos="5.10" departSpeed="0.00" departDelay="0.00" arrival="49.00" arrivalLane="-E6_1" arrivalPos="89.60" arrivalSpeed="13.29" duration="49.00" routeLength="193.45" waitingTime="15.00" waitingCount="1" stopTime="0.00" timeLoss="34.08" rerouteNo="0" devices="tripinfo_flow7.0" vType="car" speedFactor="1.05" vaporized=""/>
    <tripinfo id="flow9.0" depart="9.00" departLane="-E9_0" departPos="5.10" departSpeed="0.00" departDelay="9.00" arrival="49.00" arrivalLane="E8_0" arrivalPos="89.60" arrivalSpeed="11.52" duration="40.00" routeLength="183.13" waitingTime="7.00" waitingCount="1" stopTime="0.00" timeLoss="24.96" rerouteNo="0" devices="tripinfo_flow9.0" vType="car" speedFactor="0.94" vaporized=""/>
    <tripinfo id="flow8.0" depart="5.00" departLane="-E9_0" departPos="5.10" departSpeed="0.00" departDelay="5.00" arrival="51.00" arrivalLane="E7_0" arrivalPos="89.60" arrivalSpeed="11.96" duration="46.00" routeLength="195.06" waitingTime="11.00" waitingCount="1" stopTime="0.00" timeLoss="29.70" rerouteNo="0" devices="tripinfo_flow8.0" vType="car" speedFactor="0.89" vaporized=""/>
    <tripinfo id="flow9.1" depart="21.00" departLane="-E9_0" departPos="5.10" departSpeed="0.00" departDelay="11.00" arrival="51.00" arrivalLane="E8_0" arrivalPos="89.60" arrivalSpeed="12.50" duration="30.00" routeLength="183.13" waitingTime="0.00" waitingCount="0" stopTime="0.00" timeLoss="15.35" rerouteNo="0" devices="tripinfo_flow9.1" vType="car" speedFactor="1.02" vaporized=""/>
    <tripinfo id="flow7.1" depart="13.00" departLane="-E9_0" departPos="5.10" departSpeed="0.00" departDelay="3.00" arrival="53.00" arrivalLane="-E6_1" arrivalPos="89.60" arrivalSpeed="12.90" duration="40.00" routeLength="193.45" waitingTime="4.00" waitingCount="1" stopTime="0.00" timeLoss="23.96" rerouteNo="0" devices="tripinfo_flow7.1" vType="car" speedFactor="0.94" vaporized=""/>
    <tripinfo id="flow8.1" depart="17.00" departLane="-E9_0" departPos="5.10" departSpeed="0.00" departDelay="7.00" arrival="56.00" arrivalLane="E7_0" arrivalPos="89.60" arrivalSpeed="13.40" duration="39.00" routeLength="195.06" waitingTime="0.00" waitingCount="0" stopTime="0.00" timeLoss="24.31" rerouteNo="0" devices="tripinfo_flow8.1" vType="car" speedFactor="1.16" vaporized=""/>
    <tripinfo id="flow7.2" depart="26.00" departLane="-E9_0" departPos="5.10" departSpeed="0.00" departDelay="6.00" arrival="57.00" arrivalLane="-E6_1" arrivalPos="89.60" arrivalSpeed="13.61" duration="31.00" routeLength="193.45" waitingTime="0.00" waitingCount="0" stopTime="0.00" timeLoss="16.49" rerouteNo="0" devices="tripinfo_flow7.2" vType="car" speedFactor="1.18" vaporized=""/>
    <tripinfo id="flow9.2" depart="31.00" departLane="-E9_0" departPos="5.10" departSpeed="0.00" departDelay="11.00" arrival="57.00" arrivalLane="E8_0" arrivalPos="89.60" arrivalSpeed="12.94" duration="26.00" routeLength="183.13" waitingTime="0.00" waitingCount="0" stopTime="0.00" timeLoss="11.49" rerouteNo="0" devices="tripinfo_flow9.2" vType="car" speedFactor="1.01" vaporized=""/>
    <tripinfo id="flow4.1" depart="13.00" departLane="-E8_0" departPos="5.10" departSpeed="0.00" departDelay="3.00" arrival="64.00" arrivalLane="E7_0" arrivalPos="89.60" arrivalSpeed="11.69" duration="51.00" routeLength="183.13" waitingTime="19.00" waitingCount="1" stopTime="0.00" timeLoss="36.04" rerouteNo="0" devices="tripinfo_flow4.1" vType="car" speedFactor="0.93" vaporized=""/>
    <tripinfo id="flow5.0" depart="5.00" departLane="-E8_0" departPos="5.10" departSpeed="0.00" departDelay="5.00" arrival="65.00" arrivalLane="-E6_0" arrivalPos="89.60" arrivalSpeed="13.37" duration="60.00" routeLength="195.06" waitingTime="26.00" waitingCount="1" stopTime="0.00" timeLoss="45.10" rerouteNo="0" devices="tripinfo_flow5.0" vType="car" speedFactor="1.03" vaporized=""/>
    <tripinfo id="flow4.2" depart="23.00" departLane="-E8_0" departPos="5.10" departSpeed="0.00" departDelay="3.00" arrival="67.00" arrivalLane="E7_0" arrivalPos="89.60" arrivalSpeed="12.91" duration="44.00" routeLength="183.13" waitingTime="9.00" waitingCount="1" stopTime="0.00" timeLoss="28.73" rerouteNo="0" devices="tripinfo_flow4.2" vType="car" speedFactor="0.95" vaporized=""/>
    <tripinfo id="flow6.0" depart="9.00" departLane="-E8_0" departPos="5.10" departSpeed="0.00" departDelay="9.00" arrival="68.00" arrivalLane="E9_1" arrivalPos="89.60" arrivalSpeed="11.17" duration="59.00" routeLength="193.45" waitingTime="24.00" waitingCount="1" stopTime="0.00" timeLoss="40.97" rerouteNo="0" devices="tripinfo_flow6.0" vType="car" speedFactor="0.83" vaporized=""/>
    <tripinfo id="flow5.1" depart="17.00" departLane="-E8_0" departPos="5.10" departSpeed="0.00" departDelay="7.00" arrival="69.00" arrivalLane="-E6_0" arrivalPos="89.60" arrivalSpeed="12.12" duration="52.00" routeLength="195.06" waitingTime="16.00" waitingCount="1" stopTime="0.00" timeLoss="35.81" rerouteNo="0" devices="tripinfo_flow5.1" vType="car" speedFactor="0.88" vaporized=""/>
    <tripinfo id="flow4.3" depart="32.00" departLane="-E8_0" departPos="5.10" departSpeed="0.00" departDelay="2.00" arrival="69.00" arrivalLane="E7_0" arrivalPos="89.60" arrivalSpeed="12.31" duration="37.00" routeLength="183.13" waitingTime="2.00" waitingCount="1" stopTime="0.00" timeLoss="20.82" rerouteNo="0" devices="tripinfo_flow4.3" vType="car" speedFactor="0.90" vaporized=""/>
    <tripinfo id="flow6.1" depart="20.00" departLane="-E8_0" departPos="5.10" departSpeed="0.00" departDelay="10.00" arrival="71.00" arrivalLane="E9_1" arrivalPos="89.60" arrivalSpeed="13.06" duration="51.00" routeLength="193.45" waitingTime="15.00" waitingCount="1" stopTime="0.00" timeLoss="34.73" rerouteNo="0" devices="tripinfo_flow6.1" vType="car" speedFactor="0.94" vaporized=""/>
    <tripinfo id="flow4.4" depart="41.00" departLane="-E8_0" departPos="5.10" departSpeed="0.00" departDelay="1.00" arrival="71.00" arrivalLane="E7_0" arrivalPos="89.60" arrivalSpeed="13.28" duration="30.00" routeLength="183.13" waitingTime="0.00" waitingCount="0" stopTime="0.00" timeLoss="15.33" rerouteNo="0" devices="tripinfo_flow4.4" vType="car" speedFactor="1.17" vaporized=""/>
    <tripinfo id="flow5.2" depart="27.00" departLane="-E8_0" departPos="5.10" departSpeed="0.00" departDelay="7.00" arrival="73.00" arrivalLane="-E6_0" arrivalPos="89.60" arrivalSpeed="13.82" duration="46.00" routeLength="195.06" waitingTime="11.00" waitingCount="1" stopTime="0.00" timeLoss="31.26" rerouteNo="0" devices="tripinfo_flow5.2" vType="car" speedFactor="1.13" vaporized=""/>
    <tripinfo id="flow6.2" depart="29.00" departLane="-E8_0" departPos="5.10" departSpeed="0.00" departDelay="9.00" arrival="75.00" arrivalLane="E9_1" arrivalPos="89.60" arrivalSpeed="12.91" duration="46.00" routeLength="193.45" waitingTime="9.00" waitingCount="1" stopTime="0.00" timeLoss="30.34" rerouteNo="0" devices="tripinfo_flow6.2" vType="car" speedFactor="0.93" vaporized=""/>
    <tripinfo id="flow4.5" depart="50.00" departLane="-E8_0" departPos="5.10" departSpeed="0.00" departDelay="0.00" arrival="76.00" arrivalLane="E7_0" arrivalPos="89.60" arrivalSpeed="13.03" duration="26.00" routeLength="183.13" waitingTime="0.00" waitingCount="0" stopTime="0.00" timeLoss="11.92" rerouteNo="0" devices="tripinfo_flow4.5" vType="car" speedFactor="0.99" vaporized=""/>
    <tripinfo id="flow5.3" depart="36.00" departLane="-E8_0" departPos="5.10" departSpeed="0.00" departDelay="6.00" arrival="77.00" arrivalLane="-E6_0" arrivalPos="89.60" arrivalSpeed="13.78" duration="41.00" routeLength="195.06" waitingTime="6.00" waitingCount="1" stopTime="0.00" timeLoss="26.53" rerouteNo="0" devices="tripinfo_flow5.3" vType="car" speedFactor="1.03" vaporized=""/>
    <tripinfo id="flow6.3" depart="38.00" departLane="-E8_0" departPos="5.10" departSpeed="0.00" departDelay="8.00" arrival="80.00" arrivalLane="E9_1" arrivalPos="89.60" arrivalSpeed="13.19" duration="42.00" routeLength="193.45" waitingTime="4.00" waitingCount="2" stopTime="0.00" timeLoss="25.68" rerouteNo="0" devices="tripinfo_flow6.3" vType="car" speedFactor="0.96" vaporized=""/>
    <tripinfo id="flow5.4" depart="45.00" departLane="-E8_0" departPos="5.10" departSpeed="0.00" departDelay="5.00" arrival="81.00" arrivalLane="-E6_0" arrivalPos="89.60" arrivalSpeed="13.81" duration="36.00" routeLength="195.06" waitingTime="2.00" waitingCount="1" stopTime="0.00" timeLoss="21.19" rerouteNo="0" devices="tripinfo_flow5.4" vType="car" speedFactor="1.02" vaporized=""/>
    <tripinfo id="flow6.4" depart="46.00" departLane="-E8_0" departPos="5.10" departSpeed="0.00" departDelay="6.00" arrival="83.00" arrivalLane="E9_1" arrivalPos="89.60" arrivalSpeed="13.56" duration="37.00" routeLength="193.45" waitingTime="2.00" waitingCount="1" stopTime="0.00" timeLoss="22.30" rerouteNo="0" devices="tripinfo_flow6.4" vType="car" speedFactor="1.10" vaporized=""/>
    <tripinfo id="flow5.5" depart="54.00" departLane="-E8_0" departPos="5.10" departSpeed="0.00" departDelay="4.00" arrival="85.00" arrivalLane="-E6_0" arrivalPos="89.60" arrivalSpeed="12.66" duration="31.00" routeLength="195.06" waitingTime="0.00" waitingCount="0" stopTime="0.00" timeLoss="15.45" rerouteNo="0" devices="tripinfo_flow5.5" vType="car" speedFactor="0.94" vaporized=""/>
    <tripinfo id="flow4.6" depart="61.00" departLane="-E8_0" departPos="5.10" departSpeed="0.00" departDelay="1.00" arrival="87.00" arrivalLane="E7_0" arrivalPos="89.60" arrivalSpeed="13.28" duration="26.00" routeLength="183.13" waitingTime="0.00" waitingCount="0" stopTime="0.00" timeLoss="11.98" rerouteNo="0" devices="tripinfo_flow4.6" vType="car" speedFactor="0.98" vaporized=""/>
    <tripinfo id="flow6.5" depart="55.00" departLane="-E8_0" departPos="5.10" departSpeed="0.00" departDelay="5.00" arrival="89.00" arrivalLane="E9_1" arrivalPos="89.60" arrivalSpeed="12.22" duration="34.00" routeLength="193.45" waitingTime="4.00" waitingCount="2" stopTime="0.00" timeLoss="16.63" rerouteNo="0" devices="tripinfo_flow6.5" vType="car" speedFactor="0.88" vaporized=""/>
    <tripinfo id="flow5.6" depart="66.00" departLane="-E8_0" departPos="5.10" departSpeed="0.00" departDelay="6.00" arrival="90.00" arrivalLane="-E6_0" arrivalPos="89.60" arrivalSpeed="13.89" duration="24.00" routeLength="195.06" waitingTime="0.00" waitingCount="0" stopTime="0.00" timeLoss="8.97" rerouteNo="0" devices="tripinfo_flow5.6" vType="car" speedFactor="1.03" vaporized=""/>
    <tripinfo id="flow6.6" depart="67.00" departLane="-E8_0" departPos="5.10" departSpeed="0.00" departDelay="7.00" arrival="94.00" arrivalLane="E9_1" arrivalPos="89.60" arrivalSpeed="13.53" duration="27.00" routeLength="193.45" waitingTime="1.00" waitingCount="1" stopTime="0.00" timeLoss="11.55" rerouteNo="0" devices="tripinfo_flow6.6" vType="car" speedFactor="0.98" vaporized=""/>
    <tripinfo id="flow4.7" depart="71.00" departLane="-E8_0" departPos="5.10" departSpeed="0.00" departDelay="1.00" arrival="97.00" arrivalLane="E7_0" arrivalPos="89.60" arrivalSpeed="12.88" duration="26.00" routeLength="183.13" waitingTime="0.00" waitingCount="0" stopTime="0.00" timeLoss="11.36" rerouteNo="0" devices="tripinfo_flow4.7" vType="car" speedFactor="1.04" vaporized=""/>
    <tripinfo id="flow5.7" depart="75.00" departLane="-E8_0" departPos="5.10" departSpeed="0.00" departDelay="5.00" arrival="98.00" arrivalLane="-E6_0" arrivalPos="89.60" arrivalSpeed="13.57" duration="23.00" routeLength="195.06" waitingTime="0.00" waitingCount="0" stopTime="0.00" timeLoss="8.34" rerouteNo="0" devices="tripinfo_flow5.7" vType="car" speedFactor="1.01" vaporized=""/>
    <tripinfo id="flow6.7" depart="78.00" departLane="-E8_0" departPos="5.10" departSpeed="0.00" departDelay="8.00" arrival="102.00" arrivalLane="E9_1" arrivalPos="89.60" arrivalSpeed="13.63" duration="24.00" routeLength="193.45" waitingTime="0.00" waitingCount="0" stopTime="0.00" timeLoss="9.42" rerouteNo="0" devices="tripinfo_flow6.7" vType="car" speedFactor="1.02" vaporized=""/>
    <tripinfo id="flow12.0" depart="8.00" departLane="E6_0" departPos="5.10" departSpeed="0.00" departDelay="8.00" arrival="112.00" arrivalLane="E9_0" arrivalPos="89.60" arrivalSpeed="12.22" duration="104.00" routeLength="183.13" waitingTime="72.00" waitingCount="1" stopTime="0.00" timeLoss="90.28" rerouteNo="0" devices="tripinfo_flow12.0" vType="car" speedFactor="1.03" vaporized=""/>
    <tripinfo id="flow10.0" depart="0.00" departLane="E6_0" departPos="5.10" departSpeed="0.00" departDelay="0.00" arrival="113.00" arrivalLane="E7_1" arrivalPos="89.60" arrivalSpeed="11.66" duration="113.00" routeLength="193.45" waitingTime="80.00" waitingCount="1" stopTime="0.00" timeLoss="95.69" rerouteNo="0" devices="tripinfo_flow10.0" vType="car" speedFactor="0.86" vaporized=""/>
    <tripinfo id="flow12.1" depart="20.00" departLane="E6_0" departPos="5.10" departSpeed="0.00" departDelay="10.00" arrival="114.00" arrivalLane="E9_0" arrivalPos="89.60" arrivalSpeed="12.28" duration="94.00" routeLength="183.13" waitingTime="60.00" waitingCount="1" stopTime="0.00" timeLoss="78.11" rerouteNo="0" devices="tripinfo_flow12.1" vType="car" speedFactor="0.89" vaporized=""/>
    <tripinfo id="flow11.0" depart="4.00" departLane="E6_0" departPos="5.10" departSpeed="0.00" departDelay="4.00" arrival="115.00" arrivalLane="E8_0" arrivalPos="89.60" arrivalSpeed="13.38" duration="111.00" routeLength="195.06" waitingTime="76.00" waitingCount="1" stopTime="0.00" timeLoss="96.39" rerouteNo="0" devices="tripinfo_flow11.0" vType="car" speedFactor="1.09" vaporized=""/>
    <tripinfo id="flow10.1" depart="12.00" departLane="E6_0" departPos="5.10" departSpeed="0.00" departDelay="2.00" arrival="117.00" arrivalLane="E7_1" arrivalPos="89.60" arrivalSpeed="13.55" duration="105.00" routeLength="193.45" waitingTime="69.00" waitingCount="1" stopTime="0.00" timeLoss="89.87" rerouteNo="0" devices="tripinfo_flow10.1" vType="car" speedFactor="1.01" vaporized=""/>
    <tripinfo id="flow12.2" depart="30.00" departLane="E6_0" departPos="5.10" departSpeed="0.00" departDelay="10.00" arrival="117.00" arrivalLane="E9_0" arrivalPos="89.60" arrivalSpeed="13.15" duration="87.00" routeLength="183.13" waitingTime="52.00" waitingCount="1" stopTime="0.00" timeLoss="72.20" rerouteNo="0" devices="tripinfo_flow12.2" vType="car" speedFactor="1.02" vaporized=""/>
    <tripinfo id="flow11.1" depart="16.00" departLane="E6_0" departPos="5.10" departSpeed="0.00" departDelay="6.00" arrival="120.00" arrivalLane="E8_0" arrivalPos="89.60" arrivalSpeed="13.25" duration="104.00" routeLength="195.06" waitingTime="65.00" waitingCount="1" stopTime="0.00" timeLoss="89.07" rerouteNo="0" devices="tripinfo_flow11.1" vType="car" speedFactor="0.97" vaporized=""/>
    <tripinfo id="flow12.3" depart="39.00" departLane="E6_0" departPos="5.10" departSpeed="0.00" departDelay="9.00" arrival="120.00" arrivalLane="E9_0" arrivalPos="89.60" arrivalSpeed="12.43" duration="81.00" routeLength="183.13" waitingTime="44.00" waitingCount="1" stopTime="0.00" timeLoss="64.81" rerouteNo="0" devices="tripinfo_flow12.3" vType="car" speedFactor="0.90" vaporized=""/>
    <tripinfo id="flow10.2" depart="24.00" departLane="E6_0" departPos="5.10" departSpeed="0.00" departDelay="4.00" arrival="121.00" arrivalLane="E7_1" arrivalPos="89.60" arrivalSpeed="13.79" duration="97.00" routeLength="193.45" waitingTime="62.00" waitingCount="1" stopTime="0.00" timeLoss="82.33" rerouteNo="0" devices="tripinfo_flow10.2" vType="car" speedFactor="1.17" vaporized=""/>
    <tripinfo id="flow12.4" depart="49.00" departLane="E6_0" departPos="5.10" departSpeed="0.00" departDelay="9.00" arrival="122.00" arrivalLane="E9_0" arrivalPos="89.60" arrivalSpeed="13.00" duration="73.00" routeLength="183.13" waitingTime="37.00" waitingCount="1" stopTime="0.00" timeLoss="57.63" rerouteNo="0" devices="tripinfo_flow12.4" vType="car" speedFactor="0.97" vaporized=""/>
    <tripinfo id="flow9.3" depart="40.00" departLane="-E9_0" departPos="5.10" departSpeed="0.00" departDelay="10.00" arrival="128.00" arrivalLane="E8_0" arrivalPos="89.60" arrivalSpeed="11.72" duration="88.00" routeLength="183.13" waitingTime="56.00" waitingCount="1" stopTime="0.00" timeLoss="74.20" rerouteNo="0" devices="tripinfo_flow9.3" vType="car" speedFactor="1.04" vaporized=""/>
    <tripinfo id="flow8.2" depart="29.00" departLane="-E9_0" departPos="5.10" departSpeed="0.00" departDelay="9.00" arrival="130.00" arrivalLane="E7_0" arrivalPos="89.60" arrivalSpeed="12.82" duration="101.00" routeLength="195.06" waitingTime="63.00" waitingCount="1" stopTime="0.00" timeLoss="86.35" rerouteNo="0" devices="tripinfo_flow8.2" vType="car" speedFactor="1.15" vaporized=""/>
    <tripinfo id="flow9.4" depart="50.00" departLane="-E9_0" departPos="5.10" departSpeed="0.00" departDelay="10.00" arrival="130.00" arrivalLane="E8_0" arrivalPos="89.60" arrivalSpeed="12.26" duration="80.00" routeLength="183.13" waitingTime="47.00" waitingCount="1" stopTime="0.00" timeLoss="64.42" rerouteNo="0" devices="tripinfo_flow9.4" vType="car" speedFactor="0.90" vaporized=""/>
    <tripinfo id="flow7.3" depart="35.00" departLane="-E9_0" departPos="5.10" departSpeed="0.00" departDelay="5.00" arrival="131.00" arrivalLane="-E6_1" arrivalPos="89.60" arrivalSpeed="13.82" duration="96.00" routeLength="193.45" waitingTime="61.00" waitingCount="1" stopTime="0.00" timeLoss="80.69" rerouteNo="0" devices="tripinfo_flow7.3" vType="car" speedFactor="1.09" vaporized=""/>
    <tripinfo id="flow8.3" depart="37.00" departLane="-E9_0" departPos="5.10" departSpeed="0.00" departDelay="7.00" arrival="133.00" arrivalLane="E7_0" arrivalPos="89.60" arrivalSpeed="13.48" duration="96.00" routeLength="195.06" waitingTime="58.00" waitingCount="1" stopTime="0.00" timeLoss="81.60" rerouteNo="0" devices="tripinfo_flow8.3" vType="car" speedFactor="1.04" vaporized=""/>
    <tripinfo id="flow9.5" depart="58.00" departLane="-E9_0" departPos="5.10" departSpeed="0.00" departDelay="8.00" arrival="133.00" arrivalLane="E8_0" arrivalPos="89.60" arrivalSpeed="13.21" duration="75.00" routeLength="183.13" waitingTime="40.00" waitingCount="1" stopTime="0.00" timeLoss="61.02" rerouteNo="0" devices="tripinfo_flow9.5" vType="car" speedFactor="1.04" vaporized=""/>
    <tripinfo id="flow7.4" depart="44.00" departLane="-E9_0" departPos="5.10" departSpeed="0.00" departDelay="4.00" arrival="135.00" arrivalLane="-E6_1" arrivalPos="89.60" arrivalSpeed="13.63" duration="91.00" routeLength="193.45" waitingTime="55.00" waitingCount="1" stopTime="0.00" timeLoss="75.98" rerouteNo="0" devices="tripinfo_flow7.4" vType="car" speedFactor="1.00" vaporized=""/>
    <tripinfo id="flow9.6" depart="68.00" departLane="-E9_0" departPos="5.10" departSpeed="0.00" departDelay="8.00" arrival="135.00" arrivalLane="E8_0" arrivalPos="89.60" arrivalSpeed="13.10" duration="67.00" routeLength="183.13" waitingTime="31.00" waitingCount="1" stopTime="0.00" timeLoss="52.45" rerouteNo="0" devices="tripinfo_flow9.6" vType="car" speedFactor="1.03" vaporized=""/>
    <tripinfo id="flow8.4" depart="47.00" departLane="-E9_0" departPos="5.10" departSpeed="0.00" departDelay="7.00" arrival="138.00" arrivalLane="E7_0" arrivalPos="89.60" arrivalSpeed="13.45" duration="91.00" routeLength="195.06" waitingTime="54.00" waitingCount="1" stopTime="0.00" timeLoss="76.14" rerouteNo="0" devices="tripinfo_flow8.4" vType="car" speedFactor="1.00" vaporized=""/>
    <tripinfo id="flow9.7" depart="78.00" departLane="-E9_0" departPos="5.10" departSpeed="0.00" departDelay="8.00" arrival="139.00" arrivalLane="E8_0" arrivalPos="89.60" arrivalSpeed="11.17" duration="61.00" routeLength="183.13" waitingTime="23.00" waitingCount="1" stopTime="0.00" timeLoss="43.44" rerouteNo="0" devices="tripinfo_flow9.7" vType="car" speedFactor="0.83" vaporized=""/>
    <tripinfo id="flow1.2" depart="26.00" departLane="-E7_0" departPos="5.10" departSpeed="0.00" departDelay="6.00" arrival="144.00" arrivalLane="-E6_0" arrivalPos="89.60" arrivalSpeed="11.13" duration="118.00" routeLength="183.13" waitingTime="86.00" waitingCount="1" stopTime="0.00" timeLoss="100.62" rerouteNo="0" devices="tripinfo_flow1.2" vType="car" speedFactor="0.83" vaporized=""/>
    <tripinfo id="flow3.1" depart="22.00" departLane="-E7_0" departPos="5.10" departSpeed="0.00" departDelay="12.00" arrival="145.00" arrivalLane="E8_1" arrivalPos="89.60" arrivalSpeed="13.50" duration="123.00" routeLength="193.45" waitingTime="89.00" waitingCount="1" stopTime="0.00" timeLoss="107.57" rerouteNo="0" devices="tripinfo_flow3.1" vType="car" speedFactor="0.99" vaporized=""/>
    <tripinfo id="flow1.3" depart="37.00" departLane="-E7_0" departPos="5.10" departSpeed="0.00" departDelay="7.00" arrival="146.00" arrivalLane="-E6_0" arrivalPos="89.60" arrivalSpeed="12.45" duration="109.00" routeLength="183.13" waitingTime="75.00" waitingCount="1" stopTime="0.00" timeLoss="94.72" rerouteNo="0" devices="tripinfo_flow1.3" vType="car" speedFactor="0.97" vaporized=""/>
    <tripinfo id="flow2.2" depart="30.00" departLane="-E7_0" departPos="5.10" departSpeed="0.00" departDelay="10.00" arrival="147.00" arrivalLane="E9_0" arrivalPos="89.60" arrivalSpeed="12.02" duration="117.00" routeLength="195.06" waitingTime="81.00" waitingCount="1" stopTime="0.00" timeLoss="100.57" rerouteNo="0" devices="tripinfo_flow2.2" vType="car" speedFactor="0.87" vaporized=""/>
    <tripinfo id="flow3.2" depart="34.00" departLane="-E7_0" departPos="5.10" departSpeed="0.00" departDelay="14.00" arrival="149.00" arrivalLane="E8_1" arrivalPos="89.60" arrivalSpeed="12.62" duration="115.00" routeLength="193.45" waitingTime="79.00" waitingCount="1" stopTime="0.00" timeLoss="98.63" rerouteNo="0" devices="tripinfo_flow3.2" vType="car" speedFactor="0.92" vaporized=""/>
    <tripinfo id="flow1.4" depart="49.00" departLane="-E7_0" departPos="5.10" departSpeed="0.00" departDelay="9.00" arrival="149.00" arrivalLane="-E6_0" arrivalPos="89.60" arrivalSpeed="11.93" duration="100.00" routeLength="183.13" waitingTime="65.00" waitingCount="1" stopTime="0.00" timeLoss="83.74" rerouteNo="0" devices="tripinfo_flow1.4" vType="car" speedFactor="0.88" vaporized=""/>
    <tripinfo id="flow2.3" depart="42.00" departLane="-E7_0" departPos="5.10" departSpeed="0.00" departDelay="12.00" arrival="151.00" arrivalLane="E9_0" arrivalPos="89.60" arrivalSpeed="13.79" duration="109.00" routeLength="195.06" waitingTime="73.00" waitingCount="1" stopTime="0.00" timeLoss="94.39" rerouteNo="0" devices="tripinfo_flow2.3" vType="car" speedFactor="1.18" vaporized=""/>
    <tripinfo id="flow1.5" depart="58.00" departLane="-E7_0" departPos="5.10" departSpeed="0.00" departDelay="8.00" arrival="151.00" arrivalLane="-E6_0" arrivalPos="89.60" arrivalSpeed="12.65" duration="93.00" routeLength="183.13" waitingTime="59.00" waitingCount="1" stopTime="0.00" timeLoss="78.63" rerouteNo="0" devices="tripinfo_flow1.5" vType="car" speedFactor="1.08" vaporized=""/>
    <tripinfo id="flow3.3" depart="46.00" departLane="-E7_0" departPos="5.10" departSpeed="0.00" departDelay="16.00" arrival="153.00" arrivalLane="E8_1" arrivalPos="89.60" arrivalSpeed="13.41" duration="107.00" routeLength="193.45" waitingTime="71.00" waitingCount="1" stopTime="0.00" timeLoss="91.88" rerouteNo="0" devices="tripinfo_flow3.3" vType="car" speedFactor="1.10" vaporized=""/>
    <tripinfo id="flow1.6" depart="66.00" departLane="-E7_0" departPos="5.10" departSpeed="0.00" departDelay="6.00" arrival="154.00" arrivalLane="-E6_0" arrivalPos="89.60" arrivalSpeed="13.05" duration="88.00" routeLength="183.13" waitingTime="53.00" waitingCount="1" stopTime="0.00" timeLoss="72.56" rerouteNo="0" devices="tripinfo_flow1.6" vType="car" speedFactor="0.94" vaporized=""/>
    <tripinfo id="flow4.8" depart="80.00" departLane="-E8_0" departPos="5.10" departSpeed="0.00" departDelay="0.00" arrival="161.00" arrivalLane="E7_0" arrivalPos="89.60" arrivalSpeed="11.94" duration="81.00" routeLength="183.13" waitingTime="47.00" waitingCount="1" stopTime="0.00" timeLoss="66.51" rerouteNo="0" devices="tripinfo_flow4.8" vType="car" speedFactor="1.10" vaporized=""/>
    <tripinfo id="flow5.8" depart="85.00" departLane="-E8_0" departPos="5.10" departSpeed="0.00" departDelay="5.00" arrival="161.00" arrivalLane="-E6_0" arrivalPos="89.60" arrivalSpeed="13.24" duration="76.00" routeLength="195.06" waitingTime="43.00" waitingCount="1" stopTime="0.00" timeLoss="61.34" rerouteNo="0" devices="tripinfo_flow5.8" vType="car" speedFactor="1.06" vaporized=""/>
    <tripinfo id="flow6.8" depart="88.00" departLane="-E8_0" departPos="5.10" departSpeed="0.00" departDelay="8.00" arrival="163.00" arrivalLane="E9_1" arrivalPos="89.60" arrivalSpeed="12.84" duration="75.00" routeLength="193.45" waitingTime="40.00" waitingCount="1" stopTime="0.00" timeLoss="58.97" rerouteNo="0" devices="tripinfo_flow6.8" vType="car" speedFactor="0.96" vaporized=""/>
    <tripinfo id="flow4.9" depart="92.00" departLane="-E8_0" departPos="5.10" departSpeed="0.00" departDelay="2.00" arrival="163.00" arrivalLane="E7_0" arrivalPos="89.60" arrivalSpeed="11.65" duration="71.00" routeLength="183.13" waitingTime="35.00" waitingCount="1" stopTime="0.00" timeLoss="54.39" rerouteNo="0" devices="tripinfo_flow4.9" vType="car" speedFactor="0.87" vaporized=""/>
    <tripinfo id="flow5.9" depart="96.00" departLane="-E8_0" departPos="5.10" departSpeed="0.00" departDelay="6.00" arrival="165.00" arrivalLane="-E6_0" arrivalPos="89.60" arrivalSpeed="13.70" duration="69.00" routeLength="195.06" waitingTime="34.00" waitingCount="1" stopTime="0.00" timeLoss="54.62" rerouteNo="0" devices="tripinfo_flow5.9" vType="car" speedFactor="1.10" vaporized=""/>
    <tripinfo id="flow4.10" depart="103.00" departLane="-E8_0" departPos="5.10" departSpeed="0.00" departDelay="3.00" arrival="165.00" arrivalLane="E7_0" arrivalPos="89.60" arrivalSpeed="13.10" duration="62.00" routeLength="183.13" waitingTime="26.00" waitingCount="1" stopTime="0.00" timeLoss="47.21" rerouteNo="0" devices="tripinfo_flow4.10" vType="car" speedFactor="1.02" vaporized=""/>
    <tripinfo id="flow6.9" depart="100.00" departLane="-E8_0" departPos="5.10" departSpeed="0.00" departDelay="10.00" arrival="167.00" arrivalLane="E9_1" arrivalPos="89.60" arrivalSpeed="13.49" duration="67.00" routeLength="193.45" waitingTime="32.00" waitingCount="1" stopTime="0.00" timeLoss="52.33" rerouteNo="0" devices="tripinfo_flow6.9" vType="car" speedFactor="1.01" vaporized=""/>
    <tripinfo id="flow4.11" depart="113.00" departLane="-E8_0" departPos="5.10" departSpeed="0.00" departDelay="3.00" arrival="167.00" arrivalLane="E7_0" arrivalPos="89.60" arrivalSpeed="12.99" duration="54.00" routeLength="183.13" waitingTime="18.00" waitingCount="1" stopTime="0.00" timeLoss="39.49" rerouteNo="0" devices="tripinfo_flow4.11" vType="car" speedFactor="1.01" vaporized=""/>