<?xml version="1.0" encoding="UTF-8"?>

<!-- generated on 2024-09-21 16:15:52 by Eclipse SUMO GUI Version 1.20.0
<configuration xmlns:xsi="http://www.w3.org/2001/XMLSchema-instance" xsi:noNamespaceSchemaLocation="http://sumo.dlr.de/xsd/sumoConfiguration.xsd">

    <input>
        <net-file value="sumo_simulation/maps/intersection.net.xml"/>
        <route-files value="sumo_simulation/maps/intersection.rou.xml"/>
    </input>

    <output>
        <tripinfo-output value="sumo_simulation/tripinfo.xml"/>
    </output>

    <time>
        <begin value="0"/>
        <end value="200"/>
    </time>

    <report>
        <verbose value="true"/>
        <no-step-log value="true"/>
    </report>

    <traci_server>
        <remote-port value="64180"/>
    </traci_server>

</configuration>
-->

<tripinfos xmlns:xsi="http://www.w3.org/2001/XMLSchema-instance" xsi:noNamespaceSchemaLocation="http://sumo.dlr.de/xsd/tripinfo_file.xsd">
    <tripinfo id="veh_0" depart="0.00" departLane="-E7_0" departPos="5.10" departSpeed="0.00" departDelay="0.00" arrival="27.00" arrivalLane="-E6_0" arrivalPos="89.60" arrivalSpeed="14.27" duration="27.00" routeLength="183.13" waitingTime="5.00" waitingCount="1" stopTime="0.00" timeLoss="13.46" rerouteNo="0" devices="tripinfo_veh_0" vType="DEFAULT_VEHTYPE" speedFactor="1.06" vaporized=""/>
    <tripinfo id="veh_1" depart="3.00" departLane="-E7_0" departPos="5.10" departSpeed="0.00" departDelay="2.00" arrival="30.00" arrivalLane="-E6_0" arrivalPos="89.60" arrivalSpeed="12.36" duration="27.00" routeLength="183.13" waitingTime="2.00" waitingCount="1" stopTime="0.00" timeLoss="12.28" rerouteNo="0" devices="tripinfo_veh_1" vType="DEFAULT_VEHTYPE" speedFactor="0.94" vaporized=""/>
    <tripinfo id="veh_2" depart="6.00" departLane="-E7_0" departPos="5.10" departSpeed="0.00" departDelay="4.00" arrival="33.00" arrivalLane="-E6_0" arrivalPos="89.60" arrivalSpeed="13.98" duration="27.00" routeLength="183.13" waitingTime="1.00" waitingCount="1" stopTime="0.00" timeLoss="12.24" rerouteNo="0" devices="tripinfo_veh_2" vType="DEFAULT_VEHTYPE" speedFactor="1.01" vaporized=""/>
    <tripinfo id="veh_3" depart="9.00" departLane="-E7_0" departPos="5.10" departSpeed="0.00" departDelay="6.00" arrival="34.00" arrivalLane="-E6_0" arrivalPos="89.60" arrivalSpeed="14.52" duration="25.00" routeLength="183.13" waitingTime="0.00" waitingCount="0" stopTime="0.00" timeLoss="12.18" rerouteNo="0" devices="tripinfo_veh_3" vType="DEFAULT_VEHTYPE" speedFactor="1.08" vaporized=""/>
    <tripinfo id="veh_4" depart="12.00" departLane="-E7_0" departPos="5.10" departSpeed="0.00" departDelay="8.00" arrival="38.00" arrivalLane="-E6_0" arrivalPos="89.60" arrivalSpeed="13.10" duration="26.00" routeLength="183.13" waitingTime="0.00" waitingCount="0" stopTime="0.00" timeLoss="11.45" rerouteNo="0" devices="tripinfo_veh_4" vType="DEFAULT_VEHTYPE" speedFactor="1.03" vaporized=""/>
    <tripinfo id="veh_5" depart="15.00" departLane="-E7_0" departPos="5.10" departSpeed="0.00" departDelay="10.00" arrival="41.00" arrivalLane="-E6_0" arrivalPos="89.60" arrivalSpeed="10.56" duration="26.00" routeLength="183.13" waitingTime="0.00" waitingCount="0" stopTime="0.00" timeLoss="9.26" rerouteNo="0" devices="tripinfo_veh_5" vType="DEFAULT_VEHTYPE" speedFactor="0.83" vaporized=""/>
    <tripinfo id="veh_6" depart="18.00" departLane="-E7_0" departPos="5.10" departSpeed="0.00" departDelay="12.00" arrival="43.00" arrivalLane="-E6_0" arrivalPos="89.60" arrivalSpeed="13.59" duration="25.00" routeLength="183.13" waitingTime="0.00" waitingCount="0" stopTime="0.00" timeLoss="11.51" rerouteNo="0" devices="tripinfo_veh_6" vType="DEFAULT_VEHTYPE" speedFactor="1.05" vaporized=""/>
    <tripinfo id="veh_7" depart="21.00" departLane="-E7_0" departPos="5.10" departSpeed="0.00" departDelay="14.00" arrival="47.00" arrivalLane="-E6_0" arrivalPos="89.60" arrivalSpeed="11.16" duration="26.00" routeLength="183.13" waitingTime="0.00" waitingCount="0" stopTime="0.00" timeLoss="9.40" rerouteNo="0" devices="tripinfo_veh_7" vType="DEFAULT_VEHTYPE" speedFactor="0.89" vaporized=""/>
    <tripinfo id="veh_8" depart="24.00" departLane="-E7_0" departPos="5.10" departSpeed="0.00" departDelay="16.00" arrival="49.00" arrivalLane="-E6_0" arrivalPos="89.60" arrivalSpeed="12.16" duration="25.00" routeLength="183.13" waitingTime="0.00" waitingCount="0" stopTime="0.00" timeLoss="9.56" rerouteNo="0" devices="tripinfo_veh_8" vType="DEFAULT_VEHTYPE" speedFactor="0.94" vaporized=""/>
    <tripinfo id="veh_9" depart="27.00" departLane="-E7_0" departPos="5.10" departSpeed="0.00" departDelay="18.00" arrival="52.00" arrivalLane="-E6_0" arrivalPos="89.60" arrivalSpeed="11.05" duration="25.00" routeLength="183.13" waitingTime="0.00" waitingCount="0" stopTime="0.00" timeLoss="8.30" rerouteNo="0" devices="tripinfo_veh_9" vType="DEFAULT_VEHTYPE" speedFactor="0.86" vaporized=""/>
    <tripinfo id="veh_10" depart="30.00" departLane="-E7_0" departPos="5.10" departSpeed="0.00" departDelay="20.00" arrival="53.00" arrivalLane="-E6_0" arrivalPos="89.60" arrivalSpeed="13.80" duration="23.00" routeLength="183.13" waitingTime="0.00" waitingCount="0" stopTime="0.00" timeLoss="10.07" rerouteNo="0" devices="tripinfo_veh_10" vType="DEFAULT_VEHTYPE" speedFactor="1.09" vaporized=""/>
    <tripinfo id="veh_11" depart="33.00" departLane="-E7_0" departPos="5.10" departSpeed="0.00" departDelay="22.00" arrival="56.00" arrivalLane="-E6_0" arrivalPos="89.60" arrivalSpeed="14.21" duration="23.00" routeLength="183.13" waitingTime="0.00" waitingCount="0" stopTime="0.00" timeLoss="9.11" rerouteNo="0" devices="tripinfo_veh_11" vType="DEFAULT_VEHTYPE" speedFactor="1.03" vaporized=""/>
    <tripinfo id="veh_12" depart="36.00" departLane="-E7_0" departPos="5.10" departSpeed="0.00" departDelay="24.00" arrival="58.00" arrivalLane="-E6_0" arrivalPos="89.60" arrivalSpeed="13.56" duration="22.00" routeLength="183.13" waitingTime="0.00" waitingCount="0" stopTime="0.00" timeLoss="8.35" rerouteNo="0" devices="tripinfo_veh_12" vType="DEFAULT_VEHTYPE" speedFactor="1.05" vaporized=""/>
    <tripinfo id="veh_13" depart="39.00" departLane="-E7_0" departPos="5.10" departSpeed="0.00" departDelay="26.00" arrival="60.00" arrivalLane="-E6_0" arrivalPos="89.60" arrivalSpeed="15.41" duration="21.00" routeLength="183.13" waitingTime="0.00" waitingCount="0" stopTime="0.00" timeLoss="8.53" rerouteNo="0" devices="tripinfo_veh_13" vType="DEFAULT_VEHTYPE" speedFactor="1.12" vaporized=""/>
    <tripinfo id="veh_14" depart="42.00" departLane="-E7_0" departPos="5.10" departSpeed="0.00" departDelay="28.00" arrival="64.00" arrivalLane="-E6_0" arrivalPos="89.60" arrivalSpeed="12.65" duration="22.00" routeLength="183.13" waitingTime="0.00" waitingCount="0" stopTime="0.00" timeLoss="7.66" rerouteNo="0" devices="tripinfo_veh_14" vType="DEFAULT_VEHTYPE" speedFactor="0.99" vaporized=""/>
    <tripinfo id="veh_15" depart="45.00" departLane="-E7_0" departPos="5.10" departSpeed="0.00" departDelay="30.00" arrival="67.00" arrivalLane="-E6_0" arrivalPos="89.60" arrivalSpeed="12.47" duration="22.00" routeLength="183.13" waitingTime="0.00" waitingCount="0" stopTime="0.00" timeLoss="6.85" rerouteNo="0" devices="tripinfo_veh_15" vType="DEFAULT_VEHTYPE" speedFactor="0.93" vaporized=""/>
    <tripinfo id="veh_16" depart="48.00" departLane="-E7_0" departPos="5.10" departSpeed="0.00" departDelay="32.00" arrival="70.00" arrivalLane="-E6_0" arrivalPos="89.60" arrivalSpeed="11.72" duration="22.00" routeLength="183.13" waitingTime="0.00" waitingCount="0" stopTime="0.00" timeLoss="5.98" rerouteNo="0" devices="tripinfo_veh_16" vType="DEFAULT_VEHTYPE" speedFactor="0.88" vaporized=""/>
    <tripinfo id="veh_17" depart="51.00" departLane="-E7_0" departPos="5.10" departSpeed="0.00" departDelay="34.00" arrival="73.00" arrivalLane="-E6_0" arrivalPos="89.60" arrivalSpeed="12.69" duration="22.00" routeLength="183.13" waitingTime="0.00" waitingCount="0" stopTime="0.00" timeLoss="6.26" rerouteNo="0" devices="tripinfo_veh_17" vType="DEFAULT_VEHTYPE" speedFactor="0.94" vaporized=""/>
    <tripinfo id="veh_18" depart="54.00" departLane="-E7_0" departPos="5.10" departSpeed="0.00" departDelay="36.00" arrival="75.00" arrivalLane="-E6_0" arrivalPos="89.60" arrivalSpeed="12.43" duration="21.00" routeLength="183.13" waitingTime="0.00" waitingCount="0" stopTime="0.00" timeLoss="6.17" rerouteNo="0" devices="tripinfo_veh_18" vType="DEFAULT_VEHTYPE" speedFactor="0.94" vaporized=""/>
    <tripinfo id="veh_19" depart="57.00" departLane="-E7_0" departPos="5.10" departSpeed="0.00" departDelay="38.00" arrival="77.00" arrivalLane="-E6_0" arrivalPos="89.60" arrivalSpeed="15.94" duration="20.00" routeLength="183.13" waitingTime="0.00" waitingCount="0" stopTime="0.00" timeLoss="7.09" rerouteNo="0" devices="tripinfo_veh_19" vType="DEFAULT_VEHTYPE" speedFactor="1.16" vaporized=""/>
    <tripinfo id="veh_20" depart="60.00" departLane="-E7_0" departPos="5.10" departSpeed="0.00" departDelay="40.00" arrival="81.00" arrivalLane="-E6_0" arrivalPos="89.60" arrivalSpeed="12.99" duration="21.00" routeLength="183.13" waitingTime="0.00" waitingCount="0" stopTime="0.00" timeLoss="6.36" rerouteNo="0" devices="tripinfo_veh_20" vType="DEFAULT_VEHTYPE" speedFactor="1.02" vaporized=""/>
    <tripinfo id="veh_21" depart="63.00" departLane="-E7_0" departPos="5.10" departSpeed="0.00" departDelay="42.00" arrival="83.00" arrivalLane="-E6_0" arrivalPos="89.60" arrivalSpeed="13.80" duration="20.00" routeLength="183.13" waitingTime="0.00" waitingCount="0" stopTime="0.00" timeLoss="5.95" rerouteNo="0" devices="tripinfo_veh_21" vType="DEFAULT_VEHTYPE" speedFactor="1.01" vaporized=""/>
    <tripinfo id="veh_22" depart="66.00" departLane="-E7_0" departPos="5.10" departSpeed="0.00" departDelay="44.00" arrival="86.00" arrivalLane="-E6_0" arrivalPos="89.60" arrivalSpeed="13.14" duration="20.00" routeLength="183.13" waitingTime="0.00" waitingCount="0" stopTime="0.00" timeLoss="5.05" rerouteNo="0" devices="tripinfo_veh_22" vType="DEFAULT_VEHTYPE" speedFactor="0.97" vaporized=""/>
    <tripinfo id="veh_23" depart="68.00" departLane="-E7_0" departPos="5.10" departSpeed="0.00" departDelay="45.00" arrival="90.00" arrivalLane="-E6_0" arrivalPos="89.60" arrivalSpeed="11.80" duration="22.00" routeLength="183.13" waitingTime="0.00" waitingCount="0" stopTime="0.00" timeLoss="6.15" rerouteNo="0" devices="tripinfo_veh_23" vType="DEFAULT_VEHTYPE" speedFactor="0.89" vaporized=""/>
    <tripinfo id="veh_24" depart="71.00" departLane="-E7_0" departPos="5.10" departSpeed="0.00" departDelay="47.00" arrival="94.00" arrivalLane="-E6_0" arrivalPos="89.60" arrivalSpeed="10.98" duration="23.00" routeLength="183.13" waitingTime="0.00" waitingCount="0" stopTime="0.00" timeLoss="5.90" rerouteNo="0" devices="tripinfo_veh_24" vType="DEFAULT_VEHTYPE" speedFactor="0.83" vaporized=""/>
    <tripinfo id="veh_25" depart="75.00" departLane="-E7_0" departPos="5.10" departSpeed="0.00" departDelay="50.00" arrival="97.00" arrivalLane="-E6_0" arrivalPos="89.60" arrivalSpeed="10.84" duration="22.00" routeLength="183.13" waitingTime="0.00" waitingCount="0" stopTime="0.00" timeLoss="5.35" rerouteNo="0" devices="tripinfo_veh_25" vType="DEFAULT_VEHTYPE" speedFactor="0.87" vaporized=""/>
    <tripinfo id="veh_26" depart="78.00" departLane="-E7_0" departPos="5.10" departSpeed="0.00" departDelay="52.00" arrival="99.00" arrivalLane="-E6_0" arrivalPos="89.60" arrivalSpeed="12.65" duration="21.00" routeLength="183.13" waitingTime="0.00" waitingCount="0" stopTime="0.00" timeLoss="5.36" rerouteNo="0" devices="tripinfo_veh_26" vType="DEFAULT_VEHTYPE" speedFactor="0.92" vaporized=""/>
    <tripinfo id="veh_27" depart="81.00" departLane="-E7_0" departPos="5.10" departSpeed="0.00" departDelay="54.00" arrival="102.00" arrivalLane="-E6_0" arrivalPos="89.60" arrivalSpeed="12.92" duration="21.00" routeLength="183.13" waitingTime="0.00" waitingCount="0" stopTime="0.00" timeLoss="5.97" rerouteNo="0" devices="tripinfo_veh_27" vType="DEFAULT_VEHTYPE" speedFactor="0.95" vaporized=""/>
    <tripinfo id="veh_28" depart="84.00" departLane="-E7_0" departPos="5.10" departSpeed="0.00" departDelay="56.00" arrival="104.00" arrivalLane="-E6_0" arrivalPos="89.60" arrivalSpeed="15.02" duration="20.00" routeLength="183.13" waitingTime="0.00" waitingCount="0" stopTime="0.00" timeLoss="7.38" rerouteNo="0" devices="tripinfo_veh_28" vType="DEFAULT_VEHTYPE" speedFactor="1.13" vaporized=""/>
    <tripinfo id="veh_29" depart="87.00" departLane="-E7_0" departPos="5.10" departSpeed="0.00" departDelay="58.00" arrival="108.00" arrivalLane="-E6_0" arrivalPos="89.60" arrivalSpeed="11.69" duration="21.00" routeLength="183.13" waitingTime="0.00" waitingCount="0" stopTime="0.00" timeLoss="5.90" rerouteNo="0" devices="tripinfo_veh_29" vType="DEFAULT_VEHTYPE" speedFactor="0.93" vaporized=""/>
    <tripinfo id="veh_30" depart="90.00" departLane="-E7_0" departPos="5.10" departSpeed="0.00" departDelay="60.00" arrival="110.00" arrivalLane="-E6_0" arrivalPos="89.60" arrivalSpeed="16.18" duration="20.00" routeLength="183.13" waitingTime="0.00" waitingCount="0" stopTime="0.00" timeLoss="7.72" rerouteNo="0" devices="tripinfo_veh_30" vType="DEFAULT_VEHTYPE" speedFactor="1.18" vaporized=""/>
    <tripinfo id="veh_31" depart="93.00" departLane="-E7_0" departPos="5.10" departSpeed="0.00" departDelay="62.00" arrival="112.00" arrivalLane="-E6_0" arrivalPos="89.60" arrivalSpeed="15.37" duration="19.00" routeLength="183.13" waitingTime="0.00" waitingCount="0" stopTime="0.00" timeLoss="6.53" rerouteNo="0" devices="tripinfo_veh_31" vType="DEFAULT_VEHTYPE" speedFactor="1.15" vaporized=""/>
    <tripinfo id="veh_32" depart="96.00" departLane="-E7_0" departPos="5.10" departSpeed="0.00" departDelay="64.00" arrival="116.00" arrivalLane="-E6_0" arrivalPos="89.60" arrivalSpeed="13.25" duration="20.00" routeLength="183.13" waitingTime="0.00" waitingCount="0" stopTime="0.00" timeLoss="6.03" rerouteNo="0" devices="tripinfo_veh_32" vType="DEFAULT_VEHTYPE" speedFactor="1.01" vaporized=""/>
    <tripinfo id="veh_33" depart="99.00" departLane="-E7_0" departPos="5.10" departSpeed="0.00" departDelay="66.00" arrival="118.00" arrivalLane="-E6_0" arrivalPos="89.60" arrivalSpeed="15.13" duration="19.00" routeLength="183.13" waitingTime="0.00" waitingCount="0" stopTime="0.00" timeLoss="6.25" rerouteNo="0" devices="tripinfo_veh_33" vType="DEFAULT_VEHTYPE" speedFactor="1.17" vaporized=""/>
    <tripinfo id="veh_34" depart="102.00" departLane="-E7_0" departPos="5.10" departSpeed="0.00" departDelay="68.00" arrival="122.00" arrivalLane="-E6_0" arrivalPos="89.60" arrivalSpeed="12.79" duration="20.00" routeLength="183.13" waitingTime="0.00" waitingCount="0" stopTime="0.00" timeLoss="5.89" rerouteNo="0" devices="tripinfo_veh_34" vType="DEFAULT_VEHTYPE" speedFactor="0.99" vaporized=""/>
    <tripinfo id="veh_35" depart="105.00" departLane="-E7_0" departPos="5.10" departSpeed="0.00" departDelay="70.00" arrival="125.00" arrivalLane="-E6_0" arrivalPos="89.60" arrivalSpeed="13.97" duration="20.00" routeLength="183.13" waitingTime="0.00" waitingCount="0" stopTime="0.00" timeLoss="6.05" rerouteNo="0" devices="tripinfo_veh_35" vType="DEFAULT_VEHTYPE" speedFactor="1.02" vaporized=""/>
    <tripinfo id="veh_36" depart="108.00" departLane="-E7_0" departPos="5.10" departSpeed="0.00" departDelay="72.00" arrival="128.00" arrivalLane="-E6_0" arrivalPos="89.60" arrivalSpeed="12.68" duration="20.00" routeLength="183.13" waitingTime="0.00" waitingCount="0" stopTime="0.00" timeLoss="5.59" rerouteNo="0" devices="tripinfo_veh_36" vType="DEFAULT_VEHTYPE" speedFactor="0.97" vaporized=""/>
    <tripinfo id="veh_37" depart="111.00" departLane="-E7_0" departPos="5.10" departSpeed="0.00" departDelay="74.00" arrival="130.00" arrivalLane="-E6_0" arrivalPos="89.60" arrivalSpeed="15.26" duration="19.00" routeLength="183.13" waitingTime="0.00" waitingCount="0" stopTime="0.00" timeLoss="6.25" rerouteNo="0" devices="tripinfo_veh_37" vType="DEFAULT_VEHTYPE" speedFactor="1.18" vaporized=""/>
    <tripinfo id="veh_38" depart="114.00" departLane="-E7_0" departPos="5.10" departSpeed="0.00" departDelay="76.00" arrival="133.00" arrivalLane="-E6_0" arrivalPos="89.60" arrivalSpeed="15.10" duration="19.00" routeLength="183.13" waitingTime="0.00" waitingCount="0" stopTime="0.00" timeLoss="6.35" rerouteNo="0" devices="tripinfo_veh_38" vType="DEFAULT_VEHTYPE" speedFactor="1.10" vaporized=""/>
    <tripinfo id="veh_39" depart="117.00" departLane="-E7_0" departPos="5.10" departSpeed="0.00" departDelay="78.00" arrival="138.00" arrivalLane="-E6_0" arrivalPos="89.60" arrivalSpeed="12.45" duration="21.00" routeLength="183.13" waitingTime="0.00" waitingCount="0" stopTime="0.00" timeLoss="4.91" rerouteNo="0" devices="tripinfo_veh_39" vType="DEFAULT_VEHTYPE" speedFactor="0.90" vaporized=""/>
    <tripinfo id="veh_40" depart="120.00" departLane="-E7_0" departPos="5.10" departSpeed="0.00" departDelay="80.00" arrival="140.00" arrivalLane="-E6_0" arrivalPos="89.60" arrivalSpeed="13.36" duration="20.00" routeLength="183.13" waitingTime="0.00" waitingCount="0" stopTime="0.00" timeLoss="5.79" rerouteNo="0" devices="tripinfo_veh_40" vType="DEFAULT_VEHTYPE" speedFactor="1.03" vaporized=""/>
    <tripinfo id="veh_41" depart="123.00" departLane="-E7_0" departPos="5.10" departSpeed="0.00" departDelay="82.00" arrival="143.00" arrivalLane="-E6_0" arrivalPos="89.60" arrivalSpeed="12.70" duration="20.00" routeLength="183.13" waitingTime="0.00" waitingCount="0" stopTime="0.00" timeLoss="5.46" rerouteNo="0" devices="tripinfo_veh_41" vType="DEFAULT_VEHTYPE" speedFactor="0.96" vaporized=""/>
    <tripinfo id="veh_42" depart="126.00" departLane="-E7_0" departPos="5.10" departSpeed="0.00" departDelay="84.00" arrival="146.00" arrivalLane="-E6_0" arrivalPos="89.60" arrivalSpeed="13.89" duration="20.00" routeLength="183.13" waitingTime="0.00" waitingCount="0" stopTime="0.00" timeLoss="6.90" rerouteNo="0" devices="tripinfo_veh_42" vType="DEFAULT_VEHTYPE" speedFactor="1.09" vaporized=""/>
    <tripinfo id="veh_43" depart="129.00" departLane="-E7_0" departPos="5.10" departSpeed="0.00" departDelay="86.00" arrival="149.00" arrivalLane="-E6_0" arrivalPos="89.60" arrivalSpeed="13.60" duration="20.00" routeLength="183.13" waitingTime="0.00" waitingCount="0" stopTime="0.00" timeLoss="5.93" rerouteNo="0" devices="tripinfo_veh_43" vType="DEFAULT_VEHTYPE" speedFactor="1.04" vaporized=""/>
    <tripinfo id="veh_44" depart="132.00" departLane="-E7_0" departPos="5.10" departSpeed="0.00" departDelay="88.00" arrival="152.00" arrivalLane="-E6_0" arrivalPos="89.60" arrivalSpeed="13.23" duration="20.00" routeLength="183.13" waitingTime="0.00" waitingCount="0" stopTime="0.00" timeLoss="6.14" rerouteNo="0" devices="tripinfo_veh_44" vType="DEFAULT_VEHTYPE" speedFactor="1.04" vaporized=""/>
    <tripinfo id="veh_45" depart="135.00" departLane="-E7_0" departPos="5.10" departSpeed="0.00" departDelay="90.00" arrival="155.00" arrivalLane="-E6_0" arrivalPos="89.60" arrivalSpeed="14.94" duration="20.00" routeLength="183.13" waitingTime="0.00" waitingCount="0" stopTime="0.00" timeLoss="6.49" rerouteNo="0" devices="tripinfo_veh_45" vType="DEFAULT_VEHTYPE" speedFactor="1.09" vaporized=""/>
    <tripinfo id="veh_46" depart="138.00" departLane="-E7_0" departPos="5.10" departSpeed="0.00" departDelay="92.00" arrival="158.00" arrivalLane="-E6_0" arrivalPos="89.60" arrivalSpeed="13.84" duration="20.00" routeLength="183.13" waitingTime="0.00" waitingCount="0" stopTime="0.00" timeLoss="5.38" rerouteNo="0" devices="tripinfo_veh_46" vType="DEFAULT_VEHTYPE" speedFactor="1.00" vaporized=""/>
    <tripinfo id="veh_47" depart="141.00" departLane="-E7_0" departPos="5.10" departSpeed="0.00" departDelay="94.00" arrival="162.00" arrivalLane="-E6_0" arrivalPos="89.60" arrivalSpeed="11.92" duration="21.00" routeLength="183.13" waitingTime="0.00" waitingCount="0" stopTime="0.00" timeLoss="5.23" rerouteNo="0" devices="tripinfo_veh_47" vType="DEFAULT_VEHTYPE" speedFactor="0.90" vaporized=""/>
    <tripinfo id="veh_48" depart="144.00" departLane="-E7_0" departPos="5.10" departSpeed="0.00" departDelay="96.00" arrival="165.00" arrivalLane="-E6_0" arrivalPos="89.60" arrivalSpeed="11.83" duration="21.00" routeLength="183.13" waitingTime="0.00" waitingCount="0" stopTime="0.00" timeLoss="4.81" rerouteNo="0" devices="tripinfo_veh_48" vType="DEFAULT_VEHTYPE" speedFactor="0.88" vaporized=""/>
    <tripinfo id="veh_49" depart="147.00" departLane="-E7_0" departPos="5.10" departSpeed="0.00" departDelay="98.00" arrival="169.00" arrivalLane="-E6_0" arrivalPos="89.60" arrivalSpeed="10.82" duration="22.00" routeLength="183.13" waitingTime="0.00" waitingCount="0" stopTime="0.00" timeLoss="5.11" rerouteNo="0" devices="tripinfo_veh_49" vType="DEFAULT_VEHTYPE" speedFactor="0.85" vaporized=""/>
    <tripinfo id="veh_50" depart="150.00" departLane="-E7_0" departPos="5.10" departSpeed="0.00" departDelay="100.00" arrival="172.00" arrivalLane="-E6_0" arrivalPos="89.60" arrivalSpeed="11.60" duration="22.00" routeLength="183.13" waitingTime="0.00" waitingCount="0" stopTime="0.00" timeLoss="5.67" rerouteNo="0" devices="tripinfo_veh_50" vType="DEFAULT_VEHTYPE" speedFactor="0.85" vaporized=""/>
    <tripinfo id="veh_51" depart="153.00" departLane="-E7_0" departPos="5.10" departSpeed="0.00" departDelay="102.00" arrival="174.00" arrivalLane="-E6_0" arrivalPos="89.60" arrivalSpeed="15.12" duration="21.00" routeLength="183.13" waitingTime="0.00" waitingCount="0" stopTime="0.00" timeLoss="8.47" rerouteNo="0" devices="tripinfo_veh_51" vType="DEFAULT_VEHTYPE" speedFactor="1.17" vaporized=""/>
    <tripinfo id="veh_52" depart="156.00" departLane="-E7_0" departPos="5.10" departSpeed="0.00" departDelay="104.00" arrival="177.00" arrivalLane="-E6_0" arrivalPos="89.60" arrivalSpeed="13.84" duration="21.00" routeLength="183.13" waitingTime="0.00" waitingCount="0" stopTime="0.00" timeLoss="6.18" rerouteNo="0" devices="tripinfo_veh_52" vType="DEFAULT_VEHTYPE" speedFactor="1.02" vaporized=""/>
    <tripinfo id="veh_53" depart="159.00" departLane="-E7_0" departPos="5.10" departSpeed="0.00" departDelay="106.00" arrival="178.00" arrivalLane="-E6_0" arrivalPos="89.60" arrivalSpeed="14.37" duration="19.00" routeLength="183.13" waitingTime="0.00" waitingCount="0" stopTime="0.00" timeLoss="6.34" rerouteNo="0" devices="tripinfo_veh_53" vType="DEFAULT_VEHTYPE" speedFactor="1.10" vaporized=""/>
    <tripinfo id="veh_54" depart="162.00" departLane="-E7_0" departPos="5.10" departSpeed="0.00" departDelay="108.00" arrival="182.00" arrivalLane="-E6_0" arrivalPos="89.60" arrivalSpeed="12.94" duration="20.00" routeLength="183.13" waitingTime="0.00" waitingCount="0" stopTime="0.00" timeLoss="5.59" rerouteNo="0" devices="tripinfo_veh_54" vType="DEFAULT_VEHTYPE" speedFactor="1.00" vaporized=""/>
    <tripinfo id="veh_55" depart="165.00" departLane="-E7_0" departPos="5.10" departSpeed="0.00" departDelay="110.00" arrival="185.00" arrivalLane="-E6_0" arrivalPos="89.60" arrivalSpeed="13.62" duration="20.00" routeLength="183.13" waitingTime="0.00" waitingCount="0" stopTime="0.00" timeLoss="5.72" rerouteNo="0" devices="tripinfo_veh_55" vType="DEFAULT_VEHTYPE" speedFactor="1.00" vaporized=""/>
    <tripinfo id="veh_56" depart="168.00" departLane="-E7_0" departPos="5.10" departSpeed="0.00" departDelay="112.00" arrival="189.00" arrivalLane="-E6_0" arrivalPos="89.60" arrivalSpeed="12.07" duration="21.00" routeLength="183.13" waitingTime="0.00" waitingCount="0" stopTime="0.00" timeLoss="4.92" rerouteNo="0" devices="tripinfo_veh_56" vType="DEFAULT_VEHTYPE" speedFactor="0.90" vaporized=""/>
    <tripinfo id="veh_57" depart="171.00" departLane="-E7_0" departPos="5.10" departSpeed="0.00" departDelay="114.00" arrival="190.00" arrivalLane="-E6_0" arrivalPos="89.60" arrivalSpeed="15.47" duration="19.00" routeLength="183.13" waitingTime="0.00" waitingCount="0" stopTime="0.00" timeLoss="6.91" rerouteNo="0" devices="tripinfo_veh_57" vType="DEFAULT_VEHTYPE" speedFactor="1.14" vaporized=""/>
    <tripinfo id="veh_58" depart="174.00" departLane="-E7_0" departPos="5.10" departSpeed="0.00" departDelay="116.00" arrival="194.00" arrivalLane="-E6_0" arrivalPos="89.60" arrivalSpeed="13.23" duration="20.00" routeLength="183.13" waitingTime="0.00" waitingCount="0" stopTime="0.00" timeLoss="6.20" rerouteNo="0" devices="tripinfo_veh_58" vType="DEFAULT_VEHTYPE" speedFactor="1.02" vaporized=""/>
    <tripinfo id="veh_59" depart="177.00" departLane="-E7_0" departPos="5.10" departSpeed="0.00" departDelay="118.00" arrival="197.00" arrivalLane="-E6_0" arrivalPos="89.60" arrivalSpeed="12.20" duration="20.00" routeLength="183.13" waitingTime="0.00" waitingCount="0" stopTime="0.00" timeLoss="5.52" rerouteNo="0" devices="tripinfo_veh_59" vType="DEFAULT_VEHTYPE" speedFactor="0.97" vaporized=""/>
    <tripinfo id="veh_60" depart="180.00" departLane="-E7_0" departPos="5.10" departSpeed="0.00" departDelay="120.00" arrival="199.00" arrivalLane="-E6_0" arrivalPos="89.60" arrivalSpeed="14.49" duration="19.00" routeLength="183.13" waitingTime="0.00" waitingCount="0" stopTime="0.00" timeLoss="6.12" rerouteNo="0" devices="tripinfo_veh_60" vType="DEFAULT_VEHTYPE" speedFactor="1.08" vaporized=""/>
    <tripinfo id="veh_61" depart="183.00" departLane="-E7_0" departPos="5.10" departSpeed="0.00" departDelay="122.00" arrival="202.00" arrivalLane="-E6_0" arrivalPos="89.60" arrivalSpeed="15.04" duration="19.00" routeLength="183.13" waitingTime="0.00" waitingCount="0" stopTime="0.00" timeLoss="6.00" rerouteNo="0" devices="tripinfo_veh_61" vType="DEFAULT_VEHTYPE" speedFactor="1.12" vaporized=""/>
    <tripinfo id="veh_62" depart="186.00" departLane="-E7_0" departPos="5.10" departSpeed="0.00" departDelay="124.00" arrival="206.00" arrivalLane="-E6_0" arrivalPos="89.60" arrivalSpeed="13.50" duration="20.00" routeLength="183.13" waitingTime="0.00" waitingCount="0" stopTime="0.00" timeLoss="5.62" rerouteNo="0" devices="tripinfo_veh_62" vType="DEFAULT_VEHTYPE" speedFactor="1.02" vaporized=""/>
    <tripinfo id="veh_63" depart="189.00" departLane="-E7_0" departPos="5.10" departSpeed="0.00" departDelay="126.00" arrival="209.00" arrivalLane="-E6_0" arrivalPos="89.60" arrivalSpeed="12.43" duration="20.00" routeLength="183.13" waitingTime="0.00" waitingCount="0" stopTime="0.00" timeLoss="5.93" rerouteNo="0" devices="tripinfo_veh_63" vType="DEFAULT_VEHTYPE" speedFactor="0.99" vaporized=""/>
    <tripinfo id="veh_64" depart="192.00" departLane="-E7_0" departPos="5.10" departSpeed="0.00" departDelay="128.00" arrival="212.00" arrivalLane="-E6_0" arrivalPos="89.60" arrivalSpeed="12.11" duration="20.00" routeLength="183.13" waitingTime="0.00" waitingCount="0" stopTime="0.00" timeLoss="5.20" rerouteNo="0" devices="tripinfo_veh_64" vType="DEFAULT_VEHTYPE" speedFactor="0.94" vaporized=""/>
    <tripinfo id="veh_65" depart="195.00" departLane="-E7_0" departPos="5.10" departSpeed="0.00" departDelay="130.00" arrival="216.00" arrivalLane="-E6_0" arrivalPos="89.60" arrivalSpeed="11.67" duration="21.00" routeLength="183.13" waitingTime="0.00" waitingCount="0" stopTime="0.00" timeLoss="4.76" rerouteNo="0" devices="tripinfo_veh_65" vType="DEFAULT_VEHTYPE" speedFactor="0.88" vaporized=""/>
    <tripinfo id="veh_66" depart="198.00" departLane="-E7_0" departPos="5.10" departSpeed="0.00" departDelay="132.00" arrival="218.00" arrivalLane="-E6_0" arrivalPos="89.60" arrivalSpeed="11.47" duration="20.00" routeLength="183.13" waitingTime="0.00" waitingCount="0" stopTime="0.00" timeLoss="4.85" rerouteNo="0" devices="tripinfo_veh_66" vType="DEFAULT_VEHTYPE" speedFactor="0.91" vaporized=""/>
    <tripinfo id="veh_67" depart="201.00" departLane="-E7_0" departPos="5.10" departSpeed="0.00" departDelay="134.00" arrival="222.00" arrivalLane="-E6_0" arrivalPos="89.60" arrivalSpeed="11.65" duration="21.00" routeLength="183.13" waitingTime="0.00" waitingCount="0" stopTime="0.00" timeLoss="5.41" rerouteNo="0" devices="tripinfo_veh_67" vType="DEFAULT_VEHTYPE" speedFactor="0.91" vaporized=""/>
    <tripinfo id="veh_68" depart="204.00" departLane="-E7_0" departPos="5.10" departSpeed="0.00" departDelay="136.00" arrival="224.00" arrivalLane="-E6_0" arrivalPos="89.60" arrivalSpeed="13.86" duration="20.00" routeLength="183.13" waitingTime="0.00" waitingCount="0" stopTime="0.00" timeLoss="6.35" rerouteNo="0" devices="tripinfo_veh_68" vType="DEFAULT_VEHTYPE" speedFactor="1.04" vaporized=""/>
    <tripinfo id="veh_69" depart="207.00" departLane="-E7_0" departPos="5.10" departSpeed="0.00" departDelay="138.00" arrival="227.00" arrivalLane="-E6_0" arrivalPos="89.60" arrivalSpeed="14.07" duration="20.00" routeLength="183.13" waitingTime="0.00" waitingCount="0" stopTime="0.00" timeLoss="5.77" rerouteNo="0" devices="tripinfo_veh_69" vType="DEFAULT_VEHTYPE" speedFactor="1.02" vaporized=""/>
    <tripinfo id="veh_70" depart="210.00" departLane="-E7_0" departPos="5.10" departSpeed="0.00" departDelay="140.00" arrival="230.00" arrivalLane="-E6_0" arrivalPos="89.60" arrivalSpeed="13.31" duration="20.00" routeLength="183.13" waitingTime="0.00" waitingCount="0" stopTime="0.00" timeLoss="5.90" rerouteNo="0" devices="tripinfo_veh_70" vType="DEFAULT_VEHTYPE" speedFactor="1.02" vaporized=""/>
    <tripinfo id="veh_71" depart="213.00" departLane="-E7_0" departPos="5.10" departSpeed="0.00" departDelay="142.00" arrival="233.00" arrivalLane="-E6_0" arrivalPos="89.60" arrivalSpeed="12.91" duration="20.00" routeLength="183.13" waitingTime="0.00" waitingCount="0" stopTime="0.00" timeLoss="5.18" rerouteNo="0" devices="tripinfo_veh_71" vType="DEFAULT_VEHTYPE" speedFactor="0.97" vaporized=""/>
    <tripinfo id="veh_72" depart="216.00" departLane="-E7_0" departPos="5.10" departSpeed="0.00" departDelay="144.00" arrival="237.00" arrivalLane="-E6_0" arrivalPos="89.60" arrivalSpeed="12.22" duration="21.00" routeLength="183.13" waitingTime="0.00" waitingCount="0" stopTime="0.00" timeLoss="5.72" rerouteNo="0" devices="tripinfo_veh_72" vType="DEFAULT_VEHTYPE" speedFactor="0.94" vaporized=""/>